
     Program PWSCF v.6.2 (svn rev. 14038) starts on  1Jul2019 at 10:24:47 

     This program is part of the open-source Quantum ESPRESSO suite
     for quantum simulation of materials; please cite
         "P. Giannozzi et al., J. Phys.:Condens. Matter 21 395502 (2009);
         "P. Giannozzi et al., J. Phys.:Condens. Matter 29 465901 (2017);
          URL http://www.quantum-espresso.org", 
     in publications or presentations arising from this work. More details at
     http://www.quantum-espresso.org/quote

     Parallel version (MPI & OpenMP), running on      20 processor cores
     Number of MPI processes:                20
     Threads/MPI process:                     1

     MPI processes distributed on     1 nodes
     R & G space division:  proc/nbgrp/npool/nimage =      20
     Reading input from La2NiO4.in

     Current dimensions of program PWSCF are:
     Max number of different atomic species (ntypx) = 10
     Max number of k-points (npk) =  40000
     Max angular momentum in pseudopotentials (lmaxx) =  3
               file La.pz-spfn-rrkjus_psl.1.0.0.UPF: wavefunction(s)  4F renormalized
               file Ni.pz-n-rrkjus_psl.0.1.UPF: wavefunction(s)  3D renormalized

     Subspace diagonalization in iterative solution of the eigenvalue problem:
     one sub-group per band group will be used
     scalapack distributed-memory algorithm (size of sub-group:  3*  3 procs)

 
     Parallelization info
     --------------------
     sticks:   dense  smooth     PW     G-vecs:    dense   smooth      PW
     Min         118     118     37                 1937     1937     344
     Max         119     119     38                 1938     1938     345
     Sum        2365    2365    747                38741    38741    6891
 


     bravais-lattice index     =           14
     lattice parameter (alat)  =      13.4186  a.u.
     unit-cell volume          =     616.6800 (a.u.)^3
     number of atoms/cell      =            7
     number of atomic types    =            3
     number of electrons       =        56.00
     number of Kohn-Sham states=           34
     kinetic-energy cutoff     =      60.0000  Ry
     charge density cutoff     =     240.0000  Ry
     convergence threshold     =      1.0E-08
     mixing beta               =       0.7000
     number of iterations used =            8  plain     mixing
     Exchange-correlation      = LDA ( 1  1  0  0 0 0)
     nstep                     =          300


     celldm(1)=  13.418567  celldm(2)=   1.000000  celldm(3)=   1.000000
     celldm(4)=  -0.862593  celldm(5)=  -0.862593  celldm(6)=   0.725183

     crystal axes: (cart. coord. in units of alat)
               a(1) = (   1.000000   0.000000   0.000000 )  
               a(2) = (   0.725183   0.688556   0.000000 )  
               a(3) = (  -0.862593  -0.344279   0.370682 )  

     reciprocal axes: (cart. coord. in units 2 pi/alat)
               b(1) = (  1.000000 -1.053194  1.348866 )  
               b(2) = (  0.000000  1.452314  1.348866 )  
               b(3) = (  0.000000  0.000000  2.697727 )  


     PseudoPot. # 1 for La read from file:
     ./La.pz-spfn-rrkjus_psl.1.0.0.UPF
     MD5 check sum: e4cc26dd351bb2aa33b11ee919d4576a
     Pseudo is Ultrasoft + core correction, Zval = 11.0
     Generated using "atomic" code by A. Dal Corso v.6.2.2
     Using radial grid of 1253 points,  8 beta functions with: 
                l(1) =   0
                l(2) =   0
                l(3) =   1
                l(4) =   1
                l(5) =   2
                l(6) =   2
                l(7) =   3
                l(8) =   3
     Q(r) pseudized with 0 coefficients 


     PseudoPot. # 2 for Ni read from file:
     ./Ni.pz-n-rrkjus_psl.0.1.UPF
     MD5 check sum: 4def80e42349afdd14834ce81d852c61
     Pseudo is Ultrasoft + core correction, Zval = 10.0
     Generated using "atomic" code by A. Dal Corso v.5.0.2 svn rev. 9415
     Using radial grid of 1195 points,  6 beta functions with: 
                l(1) =   0
                l(2) =   0
                l(3) =   1
                l(4) =   1
                l(5) =   2
                l(6) =   2
     Q(r) pseudized with 0 coefficients 


     PseudoPot. # 3 for O  read from file:
     ./O.pz-n-rrkjus_psl.0.1.UPF
     MD5 check sum: 6e384d5705d3ad042f52b90450e69d34
     Pseudo is Ultrasoft + core correction, Zval =  6.0
     Generated using "atomic" code by A. Dal Corso v.5.0.2 svn rev. 9415
     Using radial grid of 1095 points,  4 beta functions with: 
                l(1) =   0
                l(2) =   0
                l(3) =   1
                l(4) =   1
     Q(r) pseudized with 0 coefficients 


     atomic species   valence    mass     pseudopotential
        La            11.00   138.90550     La( 1.00)
        Ni            10.00    58.69340     Ni( 1.00)
        O              6.00    15.99940     O ( 1.00)

      2 Sym. Ops., with inversion, found



   Cartesian axes

     site n.     atom                  positions (alat units)
         1           La  tau(   1) = (   1.0994764   0.4388237   0.0000000  )
         2           La  tau(   2) = (   0.6257066   0.2497324   0.0000000  )
         3           O   tau(   3) = (   1.4140980   0.5643957   0.0000000  )
         4           O   tau(   4) = (   0.3110850   0.1241605   0.0000000  )
         5           Ni  tau(   5) = (   0.0000000   0.0000000   0.0000000  )
         6           O   tau(   6) = (  -0.0687041   0.1721391   0.1853424  )
         7           O   tau(   7) = (   0.0687044  -0.1721390   0.1853424  )

     number of k points=    32  gaussian smearing, width (Ry)=  0.0100
                       cart. coord. in units 2pi/alat
        k(    1) = (   0.1250000   0.0498901   0.6744322), wk =   0.0625000
        k(    2) = (   0.1250000   0.0498901   1.3488639), wk =   0.0625000
        k(    3) = (   0.1250000   0.0498901  -0.6744311), wk =   0.0625000
        k(    4) = (   0.1250000   0.0498901   0.0000006), wk =   0.0625000
        k(    5) = (   0.1250000   0.4129687   1.0116487), wk =   0.0625000
        k(    6) = (   0.1250000   0.4129687   1.6860803), wk =   0.0625000
        k(    7) = (   0.1250000   0.4129687  -0.3372147), wk =   0.0625000
        k(    8) = (   0.1250000   0.4129687   0.3372170), wk =   0.0625000
        k(    9) = (   0.1250000  -0.6762671  -0.0000006), wk =   0.0625000
        k(   10) = (   0.1250000  -0.6762671   0.6744311), wk =   0.0625000
        k(   11) = (   0.1250000  -0.6762671  -1.3488639), wk =   0.0625000
        k(   12) = (   0.1250000  -0.6762671  -0.6744322), wk =   0.0625000
        k(   13) = (   0.1250000  -0.3131885   0.3372158), wk =   0.0625000
        k(   14) = (   0.1250000  -0.3131885   1.0116475), wk =   0.0625000
        k(   15) = (   0.1250000  -0.3131885  -1.0116475), wk =   0.0625000
        k(   16) = (   0.1250000  -0.3131885  -0.3372158), wk =   0.0625000
        k(   17) = (   0.3750000  -0.2134083   1.0116487), wk =   0.0625000
        k(   18) = (   0.3750000  -0.2134083   1.6860803), wk =   0.0625000
        k(   19) = (   0.3750000  -0.2134083  -0.3372147), wk =   0.0625000
        k(   20) = (   0.3750000  -0.2134083   0.3372170), wk =   0.0625000
        k(   21) = (   0.3750000   0.1496702   1.3488651), wk =   0.0625000
        k(   22) = (   0.3750000   0.1496702   2.0232967), wk =   0.0625000
        k(   23) = (   0.3750000   0.1496702   0.0000018), wk =   0.0625000
        k(   24) = (   0.3750000   0.1496702   0.6744334), wk =   0.0625000
        k(   25) = (   0.3750000  -0.9395655   0.3372158), wk =   0.0625000
        k(   26) = (   0.3750000  -0.9395655   1.0116475), wk =   0.0625000
        k(   27) = (   0.3750000  -0.9395655  -1.0116475), wk =   0.0625000
        k(   28) = (   0.3750000  -0.9395655  -0.3372158), wk =   0.0625000
        k(   29) = (   0.3750000  -0.5764869   0.6744322), wk =   0.0625000
        k(   30) = (   0.3750000  -0.5764869   1.3488639), wk =   0.0625000
        k(   31) = (   0.3750000  -0.5764869  -0.6744311), wk =   0.0625000
        k(   32) = (   0.3750000  -0.5764869   0.0000006), wk =   0.0625000

     Dense  grid:    38741 G-vectors     FFT dimensions: (  72,  72,  72)

     Estimated max dynamical RAM per process >      62.20 MB

     Estimated total dynamical RAM >       1.21 GB

     Check: negative/imaginary core charge=   -0.000418    0.000000

     Initial potential from superposition of free atoms

     starting charge   55.94676, renormalised to   56.00000
     Starting wfc are   65 randomized atomic wfcs

     total cpu time spent up to now is        4.7 secs

     Self-consistent Calculation

     iteration #  1     ecut=    60.00 Ry     beta= 0.70
     Davidson diagonalization with overlap
     ethr =  1.00E-02,  avg # of iterations =  2.0

     total cpu time spent up to now is        7.0 secs

     total energy              =    -483.82280968 Ry
     Harris-Foulkes estimate   =    -484.97788045 Ry
     estimated scf accuracy    <       1.48924049 Ry

     iteration #  2     ecut=    60.00 Ry     beta= 0.70
     Davidson diagonalization with overlap
     ethr =  2.66E-03,  avg # of iterations =  6.8

     total cpu time spent up to now is       11.4 secs

     total energy              =    -482.85022332 Ry
     Harris-Foulkes estimate   =    -485.74966924 Ry
     estimated scf accuracy    <       8.81429241 Ry

     iteration #  3     ecut=    60.00 Ry     beta= 0.70
     Davidson diagonalization with overlap
     ethr =  2.66E-03,  avg # of iterations =  4.2

     total cpu time spent up to now is       15.2 secs

     total energy              =    -484.59032264 Ry
     Harris-Foulkes estimate   =    -484.67749342 Ry
     estimated scf accuracy    <       0.25601054 Ry

     iteration #  4     ecut=    60.00 Ry     beta= 0.70
     Davidson diagonalization with overlap
     ethr =  4.57E-04,  avg # of iterations =  2.6

     total cpu time spent up to now is       17.8 secs

     total energy              =    -484.60589718 Ry
     Harris-Foulkes estimate   =    -484.63808074 Ry
     estimated scf accuracy    <       0.10882443 Ry

     iteration #  5     ecut=    60.00 Ry     beta= 0.70
     Davidson diagonalization with overlap
     ethr =  1.94E-04,  avg # of iterations =  5.0

     total cpu time spent up to now is       20.7 secs

     total energy              =    -484.60438148 Ry
     Harris-Foulkes estimate   =    -484.61786886 Ry
     estimated scf accuracy    <       0.04727343 Ry

     iteration #  6     ecut=    60.00 Ry     beta= 0.70
     Davidson diagonalization with overlap
     ethr =  8.44E-05,  avg # of iterations =  6.3

     total cpu time spent up to now is       23.9 secs

     total energy              =    -484.60083044 Ry
     Harris-Foulkes estimate   =    -484.61097551 Ry
     estimated scf accuracy    <       0.02463024 Ry

     iteration #  7     ecut=    60.00 Ry     beta= 0.70
     Davidson diagonalization with overlap
     ethr =  4.40E-05,  avg # of iterations =  6.7

     total cpu time spent up to now is       27.6 secs

     total energy              =    -484.60614905 Ry
     Harris-Foulkes estimate   =    -484.60632846 Ry
     estimated scf accuracy    <       0.00045283 Ry

     iteration #  8     ecut=    60.00 Ry     beta= 0.70
     Davidson diagonalization with overlap
     c_bands:  1 eigenvalues not converged
     c_bands:  1 eigenvalues not converged
     c_bands:  1 eigenvalues not converged
     c_bands:  1 eigenvalues not converged
     c_bands:  1 eigenvalues not converged
     c_bands:  1 eigenvalues not converged
     c_bands:  1 eigenvalues not converged
     c_bands:  1 eigenvalues not converged
     c_bands:  1 eigenvalues not converged
     c_bands:  1 eigenvalues not converged
     ethr =  8.09E-07,  avg # of iterations = 11.9

     total cpu time spent up to now is       32.9 secs

     total energy              =    -484.60656010 Ry
     Harris-Foulkes estimate   =    -484.60659622 Ry
     estimated scf accuracy    <       0.00008852 Ry

     iteration #  9     ecut=    60.00 Ry     beta= 0.70
     Davidson diagonalization with overlap
     ethr =  1.58E-07,  avg # of iterations =  4.2

     total cpu time spent up to now is       35.7 secs

     total energy              =    -484.60656923 Ry
     Harris-Foulkes estimate   =    -484.60657638 Ry
     estimated scf accuracy    <       0.00002028 Ry

     iteration # 10     ecut=    60.00 Ry     beta= 0.70
     Davidson diagonalization with overlap
     ethr =  3.62E-08,  avg # of iterations =  4.1

     total cpu time spent up to now is       38.5 secs

     total energy              =    -484.60657193 Ry
     Harris-Foulkes estimate   =    -484.60657310 Ry
     estimated scf accuracy    <       0.00000224 Ry

     iteration # 11     ecut=    60.00 Ry     beta= 0.70
     Davidson diagonalization with overlap
     ethr =  4.01E-09,  avg # of iterations =  7.2

     total cpu time spent up to now is       42.8 secs

     total energy              =    -484.60657313 Ry
     Harris-Foulkes estimate   =    -484.60657336 Ry
     estimated scf accuracy    <       0.00000059 Ry

     iteration # 12     ecut=    60.00 Ry     beta= 0.70
     Davidson diagonalization with overlap
     ethr =  1.05E-09,  avg # of iterations =  2.2

     total cpu time spent up to now is       45.2 secs

     total energy              =    -484.60657318 Ry
     Harris-Foulkes estimate   =    -484.60657321 Ry
     estimated scf accuracy    <       0.00000007 Ry

     iteration # 13     ecut=    60.00 Ry     beta= 0.70
     Davidson diagonalization with overlap
     ethr =  1.23E-10,  avg # of iterations =  4.4

     total cpu time spent up to now is       48.6 secs

     End of self-consistent calculation

          k = 0.1250 0.0499 0.6744 (  4844 PWs)   bands (ev):

   -18.9558 -18.8438  -6.6555  -5.6800  -5.3282  -4.9418  -2.8895  -2.4238
    -2.2716  -2.1042  -1.6792  -1.5774   5.9304   6.9740   7.5895   7.7607
     8.3235   9.0801   9.1643   9.3477   9.3641   9.7942  10.3619  10.5353
    12.0516  12.1285  12.1698  12.8804  14.2137  15.2764  15.5501  15.7263
    15.8637  15.9171

          k = 0.1250 0.0499 1.3489 (  4828 PWs)   bands (ev):

   -18.8402 -18.7820  -6.1065  -6.0900  -4.8397  -4.7409  -3.3095  -3.1205
    -2.5114  -2.4564  -2.2581  -1.8391   4.7840   6.5651   6.7762   7.9488
     8.1305   9.2034   9.4299   9.5050   9.5383  10.5244  10.5253  10.7665
    12.5923  12.8128  12.8290  13.1678  15.5691  15.6893  15.8071  15.8087
    15.8367  15.9127

          k = 0.1250 0.0499-0.6744 (  4844 PWs)   bands (ev):

   -18.9558 -18.8438  -6.6555  -5.6800  -5.3282  -4.9418  -2.8895  -2.4238
    -2.2716  -2.1042  -1.6792  -1.5774   5.9304   6.9740   7.5896   7.7607
     8.3235   9.0801   9.1643   9.3477   9.3641   9.7942  10.3619  10.5353
    12.0516  12.1285  12.1698  12.8804  14.2137  15.2764  15.5501  15.7263
    15.8637  15.9171

          k = 0.1250 0.0499 0.0000 (  4895 PWs)   bands (ev):

   -19.0767 -18.9084  -7.1559  -5.1663  -4.9906  -4.3947  -2.4720  -2.4719
    -2.3447  -2.3447  -2.1369  -1.2441   7.0726   7.0727   7.7687   8.5122
     8.6017   9.6208   9.6209   9.9540   9.9540  10.6390  10.6391  10.7972
    10.8708  11.3942  11.3942  12.0670  12.5772  13.9344  14.8856  15.3939
    15.9683  15.9859

          k = 0.1250 0.4130 1.0116 (  4832 PWs)   bands (ev):

   -18.8856 -18.8224  -6.3899  -6.0882  -5.1259  -4.8780  -2.9562  -2.7506
    -2.4730  -2.2921  -1.6953  -1.5628   5.4011   6.9240   6.9796   7.9344
     8.2176   8.9767   9.2092   9.3804   9.4335  10.0765  10.1032  10.3036
    12.1991  12.4862  12.7420  13.0023  14.9052  15.6096  15.7462  15.7633
    15.8323  15.9320

          k = 0.1250 0.4130 1.6861 (  4832 PWs)   bands (ev):

   -18.8856 -18.8224  -6.3901  -6.0880  -5.1259  -4.8780  -2.9562  -2.7506
    -2.4730  -2.2921  -1.6953  -1.5628   5.4012   6.9240   6.9797   7.9345
     8.2175   8.9767   9.2092   9.3804   9.4334  10.0765  10.1032  10.3035
    12.1991  12.4862  12.7421  13.0023  14.9052  15.6096  15.7462  15.7633
    15.8323  15.9321

          k = 0.1250 0.4130-0.3372 (  4837 PWs)   bands (ev):

   -18.9972 -18.8931  -6.9027  -5.6871  -5.1008  -4.7919  -2.4450  -2.4252
    -2.3728  -2.2376  -1.5927  -1.3631   6.4571   7.2322   7.5870   8.4216
     8.6565   8.7583   9.2256   9.5188   9.5939   9.9391   9.9504  10.3872
    11.4776  11.8161  12.0549  12.5273  13.3344  14.7027  15.4224  15.5760
    15.9907  16.0077

          k = 0.1250 0.4130 0.3372 (  4837 PWs)   bands (ev):

   -18.9972 -18.8931  -6.9027  -5.6871  -5.1008  -4.7919  -2.4449  -2.4252
    -2.3728  -2.2376  -1.5926  -1.3631   6.4570   7.2322   7.5869   8.4216
     8.6565   8.7583   9.2257   9.5188   9.5939   9.9391   9.9504  10.3872
    11.4776  11.8161  12.0549  12.5273  13.3344  14.7027  15.4224  15.5760
    15.9908  16.0077

          k = 0.1250-0.6763-0.0000 (  4844 PWs)   bands (ev):

   -18.9558 -18.8438  -6.6555  -5.6800  -5.3282  -4.9417  -2.8895  -2.4238
    -2.2716  -2.1042  -1.6792  -1.5775   5.9304   6.9740   7.5895   7.7607
     8.3236   9.0801   9.1643   9.3477   9.3642   9.7942  10.3619  10.5354
    12.0516  12.1284  12.1698  12.8804  14.2137  15.2764  15.5501  15.7263
    15.8637  15.9171

          k = 0.1250-0.6763 0.6744 (  4840 PWs)   bands (ev):

   -18.9302 -18.8622  -6.6417  -6.1217  -5.3861  -4.9304  -2.5872  -2.3206
    -2.2574  -2.1867  -1.4158  -1.2005   5.8246   7.2592   7.6876   7.7944
     8.1954   8.7126   8.9475   9.0547   9.4530   9.4883   9.7274  10.2974
    11.4995  12.3586  12.5420  12.6994  13.8405  15.5791  15.6482  15.7189
    16.0895  16.1124

          k = 0.1250-0.6763-1.3489 (  4844 PWs)   bands (ev):

   -18.9247 -18.8758  -6.7339  -5.6896  -5.2577  -4.6767  -2.7351  -2.7094
    -2.5894  -2.4235  -1.4652  -1.3197   6.0740   6.9596   7.5651   8.0432
     8.3469   8.8949   9.1026   9.2522   9.4117   9.9005  10.1911  10.4702
    12.0132  12.1169  12.1563  13.1008  14.1918  15.2573  15.6139  15.7350
    15.8211  15.8671

          k = 0.1250-0.6763-0.6744 (  4840 PWs)   bands (ev):

   -18.9302 -18.8622  -6.6416  -6.1218  -5.3861  -4.9303  -2.5872  -2.3206
    -2.2574  -2.1867  -1.4157  -1.2005   5.8245   7.2591   7.6877   7.7943
     8.1954   8.7127   8.9475   9.0547   9.4531   9.4883   9.7273  10.2974
    11.4995  12.3586  12.5420  12.6993  13.8405  15.5791  15.6482  15.7189
    16.0771  16.0893

          k = 0.1250-0.3132 0.3372 (  4851 PWs)   bands (ev):

   -19.0183 -18.8711  -6.8729  -5.7637  -4.9746  -4.9685  -2.4187  -2.3359
    -2.3304  -2.0048  -1.8685  -1.3374   6.4126   7.2335   7.3839   8.4669
     8.5399   8.7752   9.3855   9.5369   9.6308   9.7335  10.0129  10.7138
    11.3973  11.8101  12.0763  12.4513  13.2061  14.8363  15.4589  15.5020
    16.0082  16.0262

          k = 0.1250-0.3132 1.0116 (  4840 PWs)   bands (ev):

   -18.8856 -18.8224  -6.4011  -6.0650  -5.1695  -4.8482  -2.8648  -2.7458
    -2.6604  -2.1970  -1.6950  -1.5645   5.3900   6.9078   7.0372   7.9121
     8.1603   9.1357   9.1404   9.2356   9.6316   9.9688  10.2078  10.2080
    12.2090  12.4178  12.7439  13.0700  14.9026  15.5761  15.7435  15.8053
    15.8279  15.9280

          k = 0.1250-0.3132-1.0116 (  4840 PWs)   bands (ev):

   -18.8856 -18.8224  -6.4010  -6.0651  -5.1695  -4.8482  -2.8648  -2.7458
    -2.6604  -2.1970  -1.6950  -1.5645   5.3899   6.9079   7.0372   7.9120
     8.1604   9.1357   9.1404   9.2356   9.6316   9.9688  10.2078  10.2081
    12.2091  12.4178  12.7438  13.0700  14.9026  15.5761  15.7434  15.8053
    15.8277  15.9280

          k = 0.1250-0.3132-0.3372 (  4851 PWs)   bands (ev):

   -19.0183 -18.8711  -6.8729  -5.7637  -4.9746  -4.9685  -2.4187  -2.3359
    -2.3304  -2.0048  -1.8685  -1.3374   6.4126   7.2336   7.3838   8.4669
     8.5399   8.7752   9.3855   9.5370   9.6308   9.7335  10.0129  10.7138
    11.3973  11.8101  12.0763  12.4513  13.2061  14.8363  15.4589  15.5020
    16.0278  16.0289

          k = 0.3750-0.2134 1.0116 (  4832 PWs)   bands (ev):

   -18.8856 -18.8224  -6.3901  -6.0880  -5.1259  -4.8780  -2.9562  -2.7506
    -2.4730  -2.2921  -1.6953  -1.5628   5.4012   6.9240   6.9797   7.9345
     8.2175   8.9767   9.2092   9.3804   9.4335  10.0765  10.1032  10.3035
    12.1991  12.4862  12.7421  13.0023  14.9052  15.6096  15.7463  15.7633
    15.8323  15.9322

          k = 0.3750-0.2134 1.6861 (  4832 PWs)   bands (ev):

   -18.8856 -18.8224  -6.3899  -6.0882  -5.1259  -4.8780  -2.9562  -2.7506
    -2.4730  -2.2921  -1.6953  -1.5628   5.4011   6.9240   6.9796   7.9344
     8.2176   8.9767   9.2092   9.3804   9.4334  10.0765  10.1032  10.3036
    12.1991  12.4862  12.7420  13.0023  14.9052  15.6096  15.7462  15.7633
    15.8323  15.9322

          k = 0.3750-0.2134-0.3372 (  4837 PWs)   bands (ev):

   -18.9972 -18.8931  -6.9027  -5.6871  -5.1008  -4.7919  -2.4449  -2.4252
    -2.3728  -2.2376  -1.5926  -1.3631   6.4570   7.2322   7.5869   8.4216
     8.6565   8.7583   9.2257   9.5188   9.5939   9.9391   9.9504  10.3872
    11.4776  11.8161  12.0549  12.5273  13.3344  14.7027  15.4224  15.5760
    15.9907  16.0077

          k = 0.3750-0.2134 0.3372 (  4837 PWs)   bands (ev):

   -18.9972 -18.8931  -6.9027  -5.6871  -5.1008  -4.7919  -2.4450  -2.4252
    -2.3728  -2.2376  -1.5927  -1.3631   6.4571   7.2322   7.5870   8.4216
     8.6565   8.7583   9.2256   9.5188   9.5939   9.9391   9.9505  10.3872
    11.4776  11.8161  12.0549  12.5273  13.3344  14.7027  15.4224  15.5760
    15.9907  16.0077

          k = 0.3750 0.1497 1.3489 (  4828 PWs)   bands (ev):

   -18.8402 -18.7820  -6.1066  -6.0900  -4.8398  -4.7409  -3.3095  -3.1205
    -2.5114  -2.4564  -2.2581  -1.8391   4.7840   6.5651   6.7762   7.9489
     8.1305   9.2034   9.4298   9.5050   9.5383  10.5244  10.5253  10.7665
    12.5923  12.8128  12.8290  13.1678  15.5690  15.6893  15.8071  15.8087
    15.8366  15.9129

          k = 0.3750 0.1497 2.0233 (  4844 PWs)   bands (ev):

   -18.9247 -18.8758  -6.7339  -5.6896  -5.2577  -4.6767  -2.7351  -2.7094
    -2.5894  -2.4235  -1.4652  -1.3196   6.0741   6.9596   7.5652   8.0432
     8.3469   8.8949   9.1026   9.2521   9.4117   9.9005  10.1910  10.4702
    12.0132  12.1169  12.1563  13.1008  14.1918  15.2573  15.6139  15.7351
    15.8211  15.8671

          k = 0.3750 0.1497 0.0000 (  4842 PWs)   bands (ev):

   -19.0297 -18.9577  -7.1056  -5.1663  -5.1150  -4.2871  -2.5513  -2.5513
    -2.2584  -2.2584  -1.9692  -1.5333   7.0351   7.0351   8.1549   8.5415
     9.0473   9.4114   9.4115   9.9530  10.1723  10.1723  10.5783  10.5784
    10.7974  11.5314  11.5315  12.0608  12.7996  13.4737  15.1776  15.4553
    15.8567  15.9658

          k = 0.3750 0.1497 0.6744 (  4844 PWs)   bands (ev):

   -18.9247 -18.8758  -6.7339  -5.6896  -5.2577  -4.6767  -2.7351  -2.7094
    -2.5894  -2.4235  -1.4652  -1.3196   6.0741   6.9596   7.5652   8.0432
     8.3469   8.8949   9.1026   9.2521   9.4117   9.9005  10.1910  10.4702
    12.0132  12.1169  12.1563  13.1008  14.1918  15.2573  15.6139  15.7350
    15.8211  15.8670

          k = 0.3750-0.9396 0.3372 (  4840 PWs)   bands (ev):

   -18.8856 -18.8224  -6.4011  -6.0650  -5.1695  -4.8482  -2.8648  -2.7458
    -2.6604  -2.1971  -1.6950  -1.5645   5.3900   6.9078   7.0373   7.9121
     8.1603   9.1357   9.1404   9.2356   9.6317   9.9688  10.2078  10.2080
    12.2090  12.4178  12.7439  13.0700  14.9026  15.5761  15.7434  15.8053
    15.8278  15.9281

          k = 0.3750-0.9396 1.0116 (  4830 PWs)   bands (ev):

   -18.9468 -18.9445  -6.9321  -5.5253  -5.3021  -4.6008  -2.7184  -2.4624
    -2.3517  -2.1969  -1.4625  -1.4093   6.4998   7.2300   7.8110   8.5032
     8.5715   8.9087   8.9829   9.6006   9.6580   9.8923   9.9018  10.1123
    11.5502  11.8209  12.0606  12.5512  13.4398  14.5874  15.3193  15.6894
    15.9462  16.0182

          k = 0.3750-0.9396-1.0116 (  4830 PWs)   bands (ev):

   -18.9468 -18.9445  -6.9321  -5.5254  -5.3021  -4.6008  -2.7184  -2.4624
    -2.3518  -2.1969  -1.4625  -1.4093   6.4997   7.2301   7.8109   8.5033
     8.5715   8.9088   8.9829   9.6006   9.6580   9.8923   9.9019  10.1123
    11.5502  11.8209  12.0606  12.5512  13.4398  14.5874  15.3193  15.6894
    15.9462  16.0180

          k = 0.3750-0.9396-0.3372 (  4840 PWs)   bands (ev):

   -18.8856 -18.8224  -6.4010  -6.0651  -5.1695  -4.8482  -2.8648  -2.7458
    -2.6604  -2.1971  -1.6950  -1.5645   5.3899   6.9079   7.0372   7.9120
     8.1604   9.1357   9.1404   9.2356   9.6317   9.9688  10.2078  10.2081
    12.2091  12.4178  12.7438  13.0700  14.9026  15.5761  15.7434  15.8053
    15.8276  15.9280

          k = 0.3750-0.5765 0.6744 (  4840 PWs)   bands (ev):

   -18.9302 -18.8622  -6.6417  -6.1217  -5.3861  -4.9304  -2.5872  -2.3206
    -2.2574  -2.1867  -1.4157  -1.2005   5.8246   7.2592   7.6876   7.7944
     8.1954   8.7126   8.9475   9.0547   9.4530   9.4883   9.7274  10.2974
    11.4995  12.3586  12.5420  12.6994  13.8405  15.5791  15.6482  15.7189
    16.0769  16.0894

          k = 0.3750-0.5765 1.3489 (  4844 PWs)   bands (ev):

   -18.9247 -18.8758  -6.7339  -5.6896  -5.2577  -4.6767  -2.7351  -2.7094
    -2.5894  -2.4235  -1.4652  -1.3197   6.0740   6.9596   7.5651   8.0432
     8.3469   8.8949   9.1026   9.2522   9.4117   9.9005  10.1911  10.4702
    12.0132  12.1169  12.1563  13.1008  14.1918  15.2573  15.6139  15.7350
    15.8211  15.8669

          k = 0.3750-0.5765-0.6744 (  4840 PWs)   bands (ev):

   -18.9302 -18.8622  -6.6416  -6.1218  -5.3861  -4.9303  -2.5872  -2.3206
    -2.2574  -2.1867  -1.4158  -1.2005   5.8245   7.2591   7.6877   7.7943
     8.1954   8.7127   8.9475   9.0547   9.4531   9.4883   9.7273  10.2974
    11.4995  12.3586  12.5420  12.6993  13.8405  15.5791  15.6482  15.7189
    16.0768  16.0893

          k = 0.3750-0.5765 0.0000 (  4844 PWs)   bands (ev):

   -18.9558 -18.8438  -6.6555  -5.6800  -5.3282  -4.9417  -2.8895  -2.4238
    -2.2716  -2.1042  -1.6792  -1.5775   5.9304   6.9740   7.5895   7.7607
     8.3236   9.0801   9.1643   9.3477   9.3642   9.7942  10.3619  10.5354
    12.0516  12.1284  12.1698  12.8804  14.2137  15.2764  15.5501  15.7263
    15.8637  15.9171

     the Fermi energy is    13.1658 ev

!    total energy              =    -484.60657320 Ry
     Harris-Foulkes estimate   =    -484.60657321 Ry
     estimated scf accuracy    <          7.2E-09 Ry

     The total energy is the sum of the following terms:

     one-electron contribution =     -61.06556714 Ry
     hartree contribution      =      79.84993000 Ry
     xc contribution           =    -220.09354102 Ry
     ewald contribution        =    -283.29539320 Ry
     smearing contrib. (-TS)   =      -0.00200183 Ry

     convergence has been achieved in  13 iterations

     Forces acting on atoms (cartesian axes, Ry/au):

     atom    1 type  1   force =    -0.00055152   -0.00021989    0.00000051
     atom    2 type  1   force =     0.00055152    0.00021989   -0.00000051
     atom    3 type  3   force =    -0.00903441   -0.00360588    0.00000024
     atom    4 type  3   force =     0.00903441    0.00360588   -0.00000024
     atom    5 type  2   force =     0.00000000    0.00000000    0.00000000
     atom    6 type  3   force =     0.00000000    0.00000000    0.00000000
     atom    7 type  3   force =     0.00000000    0.00000000    0.00000000

     Total force =     0.013782     Total SCF correction =     0.000158


     Computing stress (Cartesian axis) and pressure

          total   stress  (Ry/bohr**3)                   (kbar)     P=  -62.00
  -0.00048337  -0.00004026   0.00000002        -71.11     -5.92      0.00
  -0.00004026  -0.00039857   0.00000001         -5.92    -58.63      0.00
   0.00000002   0.00000001  -0.00038242          0.00      0.00    -56.26


     BFGS Geometry Optimization

     number of scf cycles    =   1
     number of bfgs steps    =   0

     enthalpy new            =    -484.6065732024 Ry

     new trust radius        =       0.0602260910 bohr
     new conv_thr            =       0.0000000100 Ry

     new unit-cell volume =    597.39020 a.u.^3 (    88.52409 Ang^3 )
     density =      7.51263 g/cm^3

CELL_PARAMETERS (alat= 13.41856732)
   0.987915640  -0.001006470   0.000000461
   0.715726616   0.680965345   0.000000431
  -0.851822438  -0.339979977   0.367138100

ATOMIC_POSITIONS (crystal)
La       0.637286209   0.637286252   0.000000102
La       0.362713791   0.362713748  -0.000000102
O        0.819289766   0.819289754   0.000000049
O        0.180710234   0.180710246  -0.000000049
Ni       0.000000000   0.000000000   0.000000000
O        0.000002000   0.500002000   0.500003000
O        0.500002000   0.000002000   0.500003000



     Writing output data file La2NiO4.save
     NEW-OLD atomic charge density approx. for the potential

     Check: negative/imaginary core charge=   -0.000371    0.000000
     extrapolated charge   54.19347, renormalised to   56.00000

     total cpu time spent up to now is       50.5 secs

     Self-consistent Calculation

     iteration #  1     ecut=    60.00 Ry     beta= 0.70
     Davidson diagonalization with overlap
     c_bands:  1 eigenvalues not converged
     c_bands:  1 eigenvalues not converged
     c_bands:  1 eigenvalues not converged
     c_bands:  1 eigenvalues not converged
     c_bands:  1 eigenvalues not converged
     c_bands:  1 eigenvalues not converged
     c_bands:  1 eigenvalues not converged
     c_bands:  1 eigenvalues not converged
     c_bands:  1 eigenvalues not converged
     c_bands:  3 eigenvalues not converged
     c_bands:  3 eigenvalues not converged
     c_bands:  1 eigenvalues not converged
     c_bands:  1 eigenvalues not converged
     c_bands:  1 eigenvalues not converged
     c_bands:  1 eigenvalues not converged
     c_bands:  1 eigenvalues not converged
     c_bands:  3 eigenvalues not converged
     c_bands:  3 eigenvalues not converged
     c_bands:  1 eigenvalues not converged
     c_bands:  1 eigenvalues not converged
     c_bands:  1 eigenvalues not converged
     ethr =  1.00E-06,  avg # of iterations = 17.1

     total cpu time spent up to now is       59.0 secs

     total energy              =    -483.23859760 Ry
     Harris-Foulkes estimate   =    -487.04886170 Ry
     estimated scf accuracy    <       1.27137971 Ry

     iteration #  2     ecut=    60.00 Ry     beta= 0.70
     Davidson diagonalization with overlap
     ethr =  2.27E-03,  avg # of iterations =  7.0

     total cpu time spent up to now is       63.6 secs

     total energy              =    -481.03931492 Ry
     Harris-Foulkes estimate   =    -494.00107743 Ry
     estimated scf accuracy    <     108.08255211 Ry

     iteration #  3     ecut=    60.00 Ry     beta= 0.70
     Davidson diagonalization with overlap
     ethr =  2.27E-03,  avg # of iterations =  6.9

     total cpu time spent up to now is       68.1 secs

     total energy              =    -484.47174266 Ry
     Harris-Foulkes estimate   =    -484.94816687 Ry
     estimated scf accuracy    <       3.39420737 Ry

     iteration #  4     ecut=    60.00 Ry     beta= 0.70
     Davidson diagonalization with overlap
     ethr =  2.27E-03,  avg # of iterations =  2.5

     total cpu time spent up to now is       70.4 secs

     total energy              =    -484.61463771 Ry
     Harris-Foulkes estimate   =    -484.65775000 Ry
     estimated scf accuracy    <       0.33866201 Ry

     iteration #  5     ecut=    60.00 Ry     beta= 0.70
     Davidson diagonalization with overlap
     ethr =  6.05E-04,  avg # of iterations =  3.8

     total cpu time spent up to now is       72.9 secs

     total energy              =    -484.62641827 Ry
     Harris-Foulkes estimate   =    -484.64016116 Ry
     estimated scf accuracy    <       0.25915482 Ry

     iteration #  6     ecut=    60.00 Ry     beta= 0.70
     Davidson diagonalization with overlap
     ethr =  4.63E-04,  avg # of iterations =  1.8

     total cpu time spent up to now is       75.1 secs

     total energy              =    -484.61764666 Ry
     Harris-Foulkes estimate   =    -484.62972745 Ry
     estimated scf accuracy    <       0.17593289 Ry

     iteration #  7     ecut=    60.00 Ry     beta= 0.70
     Davidson diagonalization with overlap
     ethr =  3.14E-04,  avg # of iterations =  4.3

     total cpu time spent up to now is       77.7 secs

     total energy              =    -484.61467531 Ry
     Harris-Foulkes estimate   =    -484.62041640 Ry
     estimated scf accuracy    <       0.10840960 Ry

     iteration #  8     ecut=    60.00 Ry     beta= 0.70
     Davidson diagonalization with overlap
     ethr =  1.94E-04,  avg # of iterations =  5.1

     total cpu time spent up to now is       80.5 secs

     total energy              =    -484.61210587 Ry
     Harris-Foulkes estimate   =    -484.61638637 Ry
     estimated scf accuracy    <       0.07292323 Ry

     iteration #  9     ecut=    60.00 Ry     beta= 0.70
     Davidson diagonalization with overlap
     ethr =  1.30E-04,  avg # of iterations =  2.5

     total cpu time spent up to now is       82.8 secs

     total energy              =    -484.60996368 Ry
     Harris-Foulkes estimate   =    -484.61352421 Ry
     estimated scf accuracy    <       0.04485931 Ry

     iteration # 10     ecut=    60.00 Ry     beta= 0.70
     Davidson diagonalization with overlap
     ethr =  8.01E-05,  avg # of iterations =  3.9

     total cpu time spent up to now is       85.3 secs

     total energy              =    -484.60856635 Ry
     Harris-Foulkes estimate   =    -484.61180357 Ry
     estimated scf accuracy    <       0.01671097 Ry

     iteration # 11     ecut=    60.00 Ry     beta= 0.70
     Davidson diagonalization with overlap
     ethr =  2.98E-05,  avg # of iterations =  6.6

     total cpu time spent up to now is       88.7 secs

     total energy              =    -484.61101160 Ry
     Harris-Foulkes estimate   =    -484.61150982 Ry
     estimated scf accuracy    <       0.00090645 Ry

     iteration # 12     ecut=    60.00 Ry     beta= 0.70
     Davidson diagonalization with overlap
     c_bands:  1 eigenvalues not converged
     c_bands:  1 eigenvalues not converged
     c_bands:  1 eigenvalues not converged
     ethr =  1.62E-06,  avg # of iterations = 11.0

     total cpu time spent up to now is       93.9 secs

     total energy              =    -484.61152148 Ry
     Harris-Foulkes estimate   =    -484.61157845 Ry
     estimated scf accuracy    <       0.00026557 Ry

     iteration # 13     ecut=    60.00 Ry     beta= 0.70
     Davidson diagonalization with overlap
     ethr =  4.74E-07,  avg # of iterations =  1.7

     total cpu time spent up to now is       96.1 secs

     total energy              =    -484.61151900 Ry
     Harris-Foulkes estimate   =    -484.61153525 Ry
     estimated scf accuracy    <       0.00009898 Ry

     iteration # 14     ecut=    60.00 Ry     beta= 0.70
     Davidson diagonalization with overlap
     c_bands:  1 eigenvalues not converged
     ethr =  1.77E-07,  avg # of iterations =  3.9

     total cpu time spent up to now is       98.6 secs

     total energy              =    -484.61151733 Ry
     Harris-Foulkes estimate   =    -484.61152520 Ry
     estimated scf accuracy    <       0.00002804 Ry

     iteration # 15     ecut=    60.00 Ry     beta= 0.70
     Davidson diagonalization with overlap
     ethr =  5.01E-08,  avg # of iterations =  5.3

     total cpu time spent up to now is      101.6 secs

     total energy              =    -484.61152188 Ry
     Harris-Foulkes estimate   =    -484.61152271 Ry
     estimated scf accuracy    <       0.00000648 Ry

     iteration # 16     ecut=    60.00 Ry     beta= 0.70
     Davidson diagonalization with overlap
     ethr =  1.16E-08,  avg # of iterations =  3.1

     total cpu time spent up to now is      104.1 secs

     total energy              =    -484.61152116 Ry
     Harris-Foulkes estimate   =    -484.61152251 Ry
     estimated scf accuracy    <       0.00000517 Ry

     iteration # 17     ecut=    60.00 Ry     beta= 0.70
     Davidson diagonalization with overlap
     ethr =  9.23E-09,  avg # of iterations =  2.4

     total cpu time spent up to now is      106.4 secs

     total energy              =    -484.61152137 Ry
     Harris-Foulkes estimate   =    -484.61152163 Ry
     estimated scf accuracy    <       0.00000570 Ry

     iteration # 18     ecut=    60.00 Ry     beta= 0.70
     Davidson diagonalization with overlap
     ethr =  9.23E-09,  avg # of iterations =  1.9

     total cpu time spent up to now is      108.6 secs

     total energy              =    -484.61152009 Ry
     Harris-Foulkes estimate   =    -484.61152164 Ry
     estimated scf accuracy    <       0.00000474 Ry

     iteration # 19     ecut=    60.00 Ry     beta= 0.70
     Davidson diagonalization with overlap
     ethr =  8.47E-09,  avg # of iterations =  2.0

     total cpu time spent up to now is      110.8 secs

     total energy              =    -484.61152038 Ry
     Harris-Foulkes estimate   =    -484.61152054 Ry
     estimated scf accuracy    <       0.00000047 Ry

     iteration # 20     ecut=    60.00 Ry     beta= 0.70
     Davidson diagonalization with overlap
     ethr =  8.39E-10,  avg # of iterations =  5.4

     total cpu time spent up to now is      114.3 secs

     total energy              =    -484.61152055 Ry
     Harris-Foulkes estimate   =    -484.61152059 Ry
     estimated scf accuracy    <       0.00000013 Ry

     iteration # 21     ecut=    60.00 Ry     beta= 0.70
     Davidson diagonalization with overlap
     ethr =  2.38E-10,  avg # of iterations =  2.1

     total cpu time spent up to now is      116.7 secs

     total energy              =    -484.61152055 Ry
     Harris-Foulkes estimate   =    -484.61152057 Ry
     estimated scf accuracy    <       0.00000003 Ry

     iteration # 22     ecut=    60.00 Ry     beta= 0.70
     Davidson diagonalization with overlap
     ethr =  4.71E-11,  avg # of iterations =  4.7

     total cpu time spent up to now is      120.1 secs

     End of self-consistent calculation

          k = 0.1266 0.0505 0.6809 (  4844 PWs)   bands (ev):

   -18.3288 -18.1956  -6.3482  -5.3369  -4.9603  -4.5601  -2.3177  -1.8110
    -1.6414  -1.4751  -1.0477  -0.9132   6.2653   7.3137   7.9658   8.1558
     8.7011   9.5204   9.5854   9.7604   9.7929  10.2290  10.8390  11.0159
    12.5474  12.6157  12.6752  13.4254  14.8112  15.8797  16.1701  16.3791
    16.5278  16.5837

          k = 0.1266 0.0505 1.3619 (  4828 PWs)   bands (ev):

   -18.1948 -18.1262  -5.7781  -5.7605  -4.4677  -4.3609  -2.7780  -2.5664
    -1.9540  -1.8566  -1.6295  -1.1825   5.0834   6.8773   7.1709   8.3102
     8.5282   9.6263   9.9042   9.9546  10.0361  11.0074  11.0129  11.2006
    13.1210  13.3406  13.3594  13.7314  16.2088  16.3408  16.4542  16.4641
    16.4985  16.5846

          k = 0.1266 0.0505-0.6809 (  4844 PWs)   bands (ev):

   -18.3288 -18.1956  -6.3482  -5.3369  -4.9603  -4.5601  -2.3177  -1.8110
    -1.6414  -1.4751  -1.0477  -0.9132   6.2653   7.3137   7.9658   8.1558
     8.7011   9.5204   9.5853   9.7604   9.7929  10.2290  10.8390  11.0159
    12.5474  12.6157  12.6752  13.4254  14.8112  15.8797  16.1701  16.3791
    16.5278  16.5840

          k = 0.1266 0.0505 0.0000 (  4895 PWs)   bands (ev):

   -18.4687 -18.2686  -6.8702  -4.8059  -4.5969  -3.9996  -1.8577  -1.8577
    -1.7128  -1.7128  -1.4999  -0.5707   7.4397   7.4397   8.1775   8.8697
     9.0084  10.0418  10.0418  10.3969  10.3970  11.1097  11.1098  11.2244
    11.3700  11.8495  11.8495  12.5888  13.1095  14.4527  15.4659  16.0008
    16.6369  16.6370

          k = 0.1270 0.4173 1.0214 (  4832 PWs)   bands (ev):

   -18.2471 -18.1722  -6.0793  -5.7563  -4.7478  -4.4982  -2.4022  -2.1630
    -1.8882  -1.6640  -1.0490  -0.9048   5.7159   7.2580   7.3439   8.3337
     8.6246   9.3978   9.6696   9.7813   9.8685  10.5368  10.5675  10.7661
    12.6977  13.0096  13.2631  13.5536  15.5288  16.2401  16.3992  16.4199
    16.4884  16.5984

          k = 0.1270 0.4173 1.7024 (  4832 PWs)   bands (ev):

   -18.2471 -18.1722  -6.0793  -5.7563  -4.7478  -4.4982  -2.4022  -2.1630
    -1.8882  -1.6639  -1.0490  -0.9048   5.7159   7.2580   7.3439   8.3337
     8.6246   9.3978   9.6696   9.7813   9.8684  10.5368  10.5675  10.7661
    12.6977  13.0096  13.2631  13.5536  15.5288  16.2401  16.3992  16.4199
    16.4884  16.5981

          k = 0.1270 0.4173-0.3405 (  4837 PWs)   bands (ev):

   -18.3761 -18.2524  -6.6054  -5.3428  -4.7178  -4.4036  -1.8367  -1.8069
    -1.7724  -1.5896  -0.9290  -0.7015   6.8035   7.5941   7.9749   8.8181
     9.0276   9.1483   9.6501   9.9434  10.0540  10.3784  10.4127  10.8545
    11.9382  12.2962  12.5420  13.0646  13.9060  15.2624  16.0220  16.2107
    16.6634  16.6806

          k = 0.1270 0.4173 0.3405 (  4837 PWs)   bands (ev):

   -18.3761 -18.2524  -6.6054  -5.3428  -4.7178  -4.4036  -1.8367  -1.8069
    -1.7724  -1.5896  -0.9290  -0.7015   6.8035   7.5941   7.9749   8.8181
     9.0276   9.1483   9.6501   9.9434  10.0540  10.3784  10.4127  10.8545
    11.9382  12.2962  12.5420  13.0646  13.9060  15.2624  16.0219  16.2107
    16.6634  16.6826

          k = 0.1258-0.6829-0.0000 (  4844 PWs)   bands (ev):

   -18.3288 -18.1956  -6.3482  -5.3369  -4.9603  -4.5600  -2.3177  -1.8110
    -1.6414  -1.4752  -1.0478  -0.9132   6.2653   7.3137   7.9658   8.1558
     8.7011   9.5204   9.5854   9.7605   9.7929  10.2290  10.8390  11.0159
    12.5474  12.6157  12.6752  13.4254  14.8112  15.8797  16.1701  16.3791
    16.5278  16.5838

          k = 0.1258-0.6829 0.6809 (  4840 PWs)   bands (ev):

   -18.2982 -18.2174  -6.3454  -5.7904  -5.0138  -4.5450  -2.0015  -1.6893
    -1.6437  -1.5314  -0.7625  -0.5235   6.1404   7.6183   8.0476   8.1492
     8.6051   9.1177   9.3813   9.4497   9.8969   9.9081  10.1741  10.7806
    11.9603  12.8635  13.0783  13.2161  14.4396  16.1962  16.2927  16.3740
    16.7678  16.7964

          k = 0.1258-0.6829-1.3619 (  4844 PWs)   bands (ev):

   -18.2919 -18.2337  -6.4305  -5.3470  -4.8832  -4.2824  -2.1448  -2.1391
    -1.9975  -1.8135  -0.7995  -0.6320   6.4213   7.2959   7.9373   8.4642
     8.7400   9.3282   9.5053   9.6856   9.8269  10.3390  10.6536  10.9437
    12.5073  12.6170  12.6465  13.6607  14.7871  15.8600  16.2311  16.3853
    16.4814  16.5297

          k = 0.1258-0.6829-0.6809 (  4840 PWs)   bands (ev):

   -18.2982 -18.2174  -6.3454  -5.7904  -5.0138  -4.5450  -2.0015  -1.6893
    -1.6437  -1.5314  -0.7625  -0.5235   6.1405   7.6183   8.0476   8.1492
     8.6050   9.1177   9.3813   9.4497   9.8969   9.9081  10.1741  10.7806
    11.9603  12.8635  13.0783  13.2161  14.4396  16.1962  16.2927  16.3740
    16.7546  16.7676

          k = 0.1262-0.3162 0.3405 (  4851 PWs)   bands (ev):

   -18.4011 -18.2261  -6.5760  -5.4230  -4.5878  -4.5871  -1.8055  -1.7063
    -1.6949  -1.3606  -1.2325  -0.6810   6.7569   7.5986   7.7594   8.8541
     8.9164   9.1516   9.8092   9.9918  10.0802  10.1749  10.4511  11.2090
    11.8500  12.2892  12.5662  12.9787  13.7736  15.4038  16.0824  16.1168
    16.6823  16.7045

          k = 0.1262-0.3162 1.0214 (  4840 PWs)   bands (ev):

   -18.2471 -18.1722  -6.0912  -5.7313  -4.7954  -4.4660  -2.3015  -2.1756
    -2.0618  -1.5777  -1.0438  -0.9076   5.7025   7.2428   7.4063   8.3145
     8.5493   9.5806   9.5822   9.6547  10.0626  10.4314  10.6559  10.6765
    12.7087  12.9325  13.2648  13.6288  15.5260  16.2039  16.3973  16.4644
    16.4847  16.5963

          k = 0.1262-0.3162-1.0214 (  4840 PWs)   bands (ev):

   -18.2471 -18.1722  -6.0913  -5.7313  -4.7954  -4.4660  -2.3015  -2.1756
    -2.0618  -1.5777  -1.0438  -0.9076   5.7025   7.2428   7.4063   8.3145
     8.5493   9.5806   9.5822   9.6547  10.0626  10.4314  10.6559  10.6765
    12.7087  12.9325  13.2648  13.6288  15.5260  16.2039  16.3974  16.4643
    16.4846  16.5962

          k = 0.1262-0.3162-0.3405 (  4851 PWs)   bands (ev):

   -18.4011 -18.2261  -6.5760  -5.4230  -4.5878  -4.5871  -1.8055  -1.7063
    -1.6949  -1.3606  -1.2325  -0.6810   6.7569   7.5986   7.7594   8.8541
     8.9164   9.1516   9.8092   9.9918  10.0802  10.1749  10.4511  11.2090
    11.8500  12.2892  12.5662  12.9787  13.7736  15.4038  16.0824  16.1168
    16.6826  16.7044

          k = 0.3794-0.2152 1.0214 (  4832 PWs)   bands (ev):

   -18.2471 -18.1722  -6.0793  -5.7563  -4.7478  -4.4982  -2.4022  -2.1630
    -1.8882  -1.6639  -1.0490  -0.9048   5.7159   7.2580   7.3439   8.3337
     8.6246   9.3978   9.6696   9.7813   9.8685  10.5368  10.5675  10.7661
    12.6977  13.0096  13.2631  13.5536  15.5288  16.2402  16.3993  16.4201
    16.4886  16.5988

          k = 0.3794-0.2152 1.7024 (  4832 PWs)   bands (ev):

   -18.2471 -18.1722  -6.0793  -5.7563  -4.7478  -4.4982  -2.4022  -2.1630
    -1.8882  -1.6639  -1.0490  -0.9048   5.7159   7.2580   7.3439   8.3337
     8.6246   9.3978   9.6696   9.7813   9.8684  10.5368  10.5675  10.7661
    12.6977  13.0096  13.2631  13.5536  15.5288  16.2402  16.3993  16.4199
    16.4885  16.5980

          k = 0.3794-0.2152-0.3405 (  4837 PWs)   bands (ev):

   -18.3761 -18.2524  -6.6054  -5.3428  -4.7178  -4.4036  -1.8367  -1.8069
    -1.7724  -1.5896  -0.9290  -0.7015   6.8035   7.5941   7.9749   8.8181
     9.0276   9.1483   9.6501   9.9434  10.0540  10.3784  10.4127  10.8545
    11.9382  12.2962  12.5420  13.0646  13.9060  15.2624  16.0220  16.2107
    16.6634  16.6815

          k = 0.3794-0.2152 0.3405 (  4837 PWs)   bands (ev):

   -18.3761 -18.2524  -6.6054  -5.3428  -4.7178  -4.4036  -1.8367  -1.8069
    -1.7724  -1.5896  -0.9290  -0.7015   6.8035   7.5941   7.9749   8.8181
     9.0276   9.1483   9.6502   9.9434  10.0540  10.3784  10.4127  10.8545
    11.9382  12.2962  12.5420  13.0646  13.9060  15.2624  16.0219  16.2107
    16.6634  16.6813

          k = 0.3797 0.1516 1.3619 (  4828 PWs)   bands (ev):

   -18.1948 -18.1262  -5.7781  -5.7605  -4.4677  -4.3609  -2.7779  -2.5664
    -1.9540  -1.8566  -1.6295  -1.1825   5.0834   6.8773   7.1709   8.3103
     8.5282   9.6263   9.9041   9.9546  10.0361  11.0074  11.0130  11.2006
    13.1210  13.3406  13.3593  13.7314  16.2088  16.3408  16.4542  16.4641
    16.4985  16.5845

          k = 0.3797 0.1516 2.0428 (  4844 PWs)   bands (ev):

   -18.2919 -18.2337  -6.4305  -5.3471  -4.8832  -4.2825  -2.1447  -2.1390
    -1.9975  -1.8135  -0.7995  -0.6319   6.4214   7.2959   7.9373   8.4642
     8.7399   9.3282   9.5053   9.6856   9.8269  10.3390  10.6536  10.9436
    12.5073  12.6170  12.6465  13.6607  14.7871  15.8600  16.2311  16.3853
    16.4814  16.5294

          k = 0.3797 0.1516 0.0000 (  4842 PWs)   bands (ev):

   -18.4128 -18.3276  -6.8097  -4.8060  -4.7325  -3.8873  -1.9492  -1.9492
    -1.6120  -1.6120  -1.3413  -0.8713   7.3925   7.3925   8.6129   8.9006
     9.4723   9.8225   9.8226  10.4096  10.6193  10.6194  11.0563  11.0564
    11.2247  11.9990  11.9990  12.5806  13.3465  13.9755  15.7555  16.0730
    16.5227  16.6320

          k = 0.3797 0.1516 0.6809 (  4844 PWs)   bands (ev):

   -18.2919 -18.2337  -6.4305  -5.3471  -4.8832  -4.2825  -2.1448  -2.1390
    -1.9975  -1.8135  -0.7995  -0.6319   6.4214   7.2959   7.9373   8.4642
     8.7399   9.3282   9.5052   9.6856   9.8269  10.3390  10.6536  10.9436
    12.5073  12.6170  12.6465  13.6607  14.7871  15.8600  16.2311  16.3853
    16.4814  16.5294

          k = 0.3786-0.9486 0.3405 (  4840 PWs)   bands (ev):

   -18.2471 -18.1722  -6.0912  -5.7313  -4.7954  -4.4659  -2.3015  -2.1757
    -2.0618  -1.5777  -1.0438  -0.9076   5.7025   7.2428   7.4063   8.3145
     8.5493   9.5805   9.5822   9.6547  10.0627  10.4314  10.6559  10.6765
    12.7087  12.9325  13.2648  13.6288  15.5260  16.2039  16.3974  16.4643
    16.4846  16.5961

          k = 0.3786-0.9486 1.0214 (  4830 PWs)   bands (ev):

   -18.3167 -18.3133  -6.6347  -5.1744  -4.9263  -4.2051  -2.1341  -1.8496
    -1.7548  -1.5422  -0.7946  -0.7401   6.8480   7.5885   8.2031   8.9325
     8.9395   9.2991   9.4166  10.0154  10.1070  10.3430  10.3626  10.5577
    12.0174  12.3019  12.5485  13.0913  14.0141  15.1402  15.9028  16.3359
    16.6150  16.6794

          k = 0.3786-0.9486-1.0214 (  4830 PWs)   bands (ev):

   -18.3167 -18.3133  -6.6347  -5.1744  -4.9263  -4.2051  -2.1341  -1.8496
    -1.7548  -1.5422  -0.7946  -0.7401   6.8480   7.5885   8.2032   8.9325
     8.9395   9.2991   9.4166  10.0154  10.1070  10.3430  10.3626  10.5577
    12.0174  12.3019  12.5485  13.0913  14.0141  15.1402  15.9028  16.3359
    16.6150  16.6948

          k = 0.3786-0.9486-0.3405 (  4840 PWs)   bands (ev):

   -18.2471 -18.1722  -6.0913  -5.7313  -4.7954  -4.4659  -2.3015  -2.1757
    -2.0618  -1.5777  -1.0438  -0.9076   5.7025   7.2428   7.4063   8.3145
     8.5493   9.5805   9.5822   9.6547  10.0627  10.4314  10.6559  10.6765
    12.7087  12.9325  13.2648  13.6288  15.5260  16.2039  16.3974  16.4643
    16.4846  16.5959

          k = 0.3790-0.5819 0.6809 (  4840 PWs)   bands (ev):

   -18.2982 -18.2174  -6.3454  -5.7904  -5.0138  -4.5450  -2.0015  -1.6893
    -1.6437  -1.5314  -0.7625  -0.5235   6.1404   7.6183   8.0476   8.1492
     8.6051   9.1177   9.3813   9.4497   9.8969   9.9081  10.1741  10.7806
    11.9603  12.8635  13.0783  13.2161  14.4396  16.1962  16.2927  16.3740
    16.7593  16.7678

          k = 0.3790-0.5819 1.3619 (  4844 PWs)   bands (ev):

   -18.2919 -18.2337  -6.4305  -5.3470  -4.8832  -4.2824  -2.1448  -2.1391
    -1.9975  -1.8135  -0.7995  -0.6320   6.4213   7.2959   7.9373   8.4642
     8.7400   9.3282   9.5053   9.6856   9.8269  10.3390  10.6536  10.9437
    12.5073  12.6170  12.6465  13.6607  14.7871  15.8600  16.2311  16.3853
    16.4815  16.5293

          k = 0.3790-0.5819-0.6809 (  4840 PWs)   bands (ev):

   -18.2982 -18.2174  -6.3454  -5.7904  -5.0138  -4.5450  -2.0015  -1.6893
    -1.6437  -1.5314  -0.7625  -0.5235   6.1405   7.6183   8.0476   8.1492
     8.6050   9.1177   9.3813   9.4497   9.8969   9.9081  10.1741  10.7806
    11.9603  12.8635  13.0783  13.2161  14.4396  16.1962  16.2927  16.3740
    16.7543  16.7678

          k = 0.3790-0.5819 0.0000 (  4844 PWs)   bands (ev):

   -18.3288 -18.1956  -6.3482  -5.3369  -4.9603  -4.5600  -2.3177  -1.8110
    -1.6414  -1.4752  -1.0478  -0.9132   6.2653   7.3137   7.9658   8.1558
     8.7011   9.5204   9.5854   9.7605   9.7929  10.2290  10.8390  11.0159
    12.5474  12.6157  12.6752  13.4254  14.8112  15.8797  16.1701  16.3791
    16.5278  16.5846

     the Fermi energy is    13.7274 ev

!    total energy              =    -484.61152056 Ry
     Harris-Foulkes estimate   =    -484.61152056 Ry
     estimated scf accuracy    <          2.9E-09 Ry

     The total energy is the sum of the following terms:

     one-electron contribution =     -56.52323715 Ry
     hartree contribution      =      78.67751778 Ry
     xc contribution           =    -220.27634552 Ry
     ewald contribution        =    -286.48753765 Ry
     smearing contrib. (-TS)   =      -0.00191802 Ry

     convergence has been achieved in  22 iterations

     Forces acting on atoms (cartesian axes, Ry/au):

     atom    1 type  1   force =     0.00242294    0.00096716    0.00000064
     atom    2 type  1   force =    -0.00242294   -0.00096716   -0.00000064
     atom    3 type  3   force =    -0.00589106   -0.00235127    0.00000008
     atom    4 type  3   force =     0.00589106    0.00235127   -0.00000008
     atom    5 type  2   force =     0.00000000    0.00000000    0.00000000
     atom    6 type  3   force =     0.00000000    0.00000000    0.00000000
     atom    7 type  3   force =     0.00000000    0.00000000    0.00000000

     Total force =     0.009699     Total SCF correction =     0.000033


     Computing stress (Cartesian axis) and pressure

          total   stress  (Ry/bohr**3)                   (kbar)     P=   -8.07
  -0.00010633  -0.00003347   0.00000001        -15.64     -4.92      0.00
  -0.00003347  -0.00003582   0.00000001         -4.92     -5.27      0.00
   0.00000001   0.00000001  -0.00002239          0.00      0.00     -3.29


     number of scf cycles    =   2
     number of bfgs steps    =   1

     enthalpy old            =    -484.6065732024 Ry
     enthalpy new            =    -484.6115205609 Ry

     CASE: enthalpy_new < enthalpy_old

     new trust radius        =       0.0171243211 bohr
     new conv_thr            =       0.0000000006 Ry

     new unit-cell volume =    594.13494 a.u.^3 (    88.04171 Ang^3 )
     density =      7.55380 g/cm^3

CELL_PARAMETERS (alat= 13.41856732)
   0.984599958  -0.001993436   0.000000834
   0.712642559   0.679398065   0.000000925
  -0.848622425  -0.338702731   0.366826043

ATOMIC_POSITIONS (crystal)
La       0.637407376   0.637407445   0.000000254
La       0.362592624   0.362592555  -0.000000254
O        0.818986122   0.818986104   0.000000068
O        0.181013878   0.181013896  -0.000000068
Ni       0.000000000   0.000000000   0.000000000
O        0.000002000   0.500002000   0.500003000
O        0.500002000   0.000002000   0.500003000



     Writing output data file La2NiO4.save
     NEW-OLD atomic charge density approx. for the potential

     Check: negative/imaginary core charge=   -0.000363    0.000000
     extrapolated charge   55.69347, renormalised to   56.00000

     total cpu time spent up to now is      122.0 secs

     Self-consistent Calculation

     iteration #  1     ecut=    60.00 Ry     beta= 0.70
     Davidson diagonalization with overlap
     c_bands:  1 eigenvalues not converged
     c_bands:  1 eigenvalues not converged
     ethr =  1.00E-06,  avg # of iterations = 10.5

     total cpu time spent up to now is      127.6 secs

     total energy              =    -484.57913422 Ry
     Harris-Foulkes estimate   =    -484.99678389 Ry
     estimated scf accuracy    <       0.02980294 Ry

     iteration #  2     ecut=    60.00 Ry     beta= 0.70
     Davidson diagonalization with overlap
     ethr =  5.32E-05,  avg # of iterations =  7.9

     total cpu time spent up to now is      132.4 secs

     total energy              =    -484.44992752 Ry
     Harris-Foulkes estimate   =    -484.74304467 Ry
     estimated scf accuracy    <       2.23268966 Ry

     iteration #  3     ecut=    60.00 Ry     beta= 0.70
     Davidson diagonalization with overlap
     ethr =  5.32E-05,  avg # of iterations =  6.5

     total cpu time spent up to now is      136.9 secs

     total energy              =    -484.61192178 Ry
     Harris-Foulkes estimate   =    -484.61501600 Ry
     estimated scf accuracy    <       0.01564409 Ry

     iteration #  4     ecut=    60.00 Ry     beta= 0.70
     Davidson diagonalization with overlap
     ethr =  2.79E-05,  avg # of iterations =  1.6

     total cpu time spent up to now is      139.1 secs

     total energy              =    -484.61218496 Ry
     Harris-Foulkes estimate   =    -484.61273772 Ry
     estimated scf accuracy    <       0.00828278 Ry

     iteration #  5     ecut=    60.00 Ry     beta= 0.70
     Davidson diagonalization with overlap
     ethr =  1.48E-05,  avg # of iterations =  1.0

     total cpu time spent up to now is      141.7 secs

     total energy              =    -484.61195622 Ry
     Harris-Foulkes estimate   =    -484.61234429 Ry
     estimated scf accuracy    <       0.00531538 Ry

     iteration #  6     ecut=    60.00 Ry     beta= 0.70
     Davidson diagonalization with overlap
     ethr =  9.49E-06,  avg # of iterations =  1.0

     total cpu time spent up to now is      143.8 secs

     total energy              =    -484.61174175 Ry
     Harris-Foulkes estimate   =    -484.61205803 Ry
     estimated scf accuracy    <       0.00308780 Ry

     iteration #  7     ecut=    60.00 Ry     beta= 0.70
     Davidson diagonalization with overlap
     ethr =  5.51E-06,  avg # of iterations =  1.1

     total cpu time spent up to now is      145.9 secs

     total energy              =    -484.61165373 Ry
     Harris-Foulkes estimate   =    -484.61182958 Ry
     estimated scf accuracy    <       0.00142183 Ry

     iteration #  8     ecut=    60.00 Ry     beta= 0.70
     Davidson diagonalization with overlap
     ethr =  2.54E-06,  avg # of iterations =  3.6

     total cpu time spent up to now is      148.4 secs

     total energy              =    -484.61175804 Ry
     Harris-Foulkes estimate   =    -484.61176979 Ry
     estimated scf accuracy    <       0.00035046 Ry

     iteration #  9     ecut=    60.00 Ry     beta= 0.70
     Davidson diagonalization with overlap
     ethr =  6.26E-07,  avg # of iterations =  3.4

     total cpu time spent up to now is      151.0 secs

     total energy              =    -484.61179660 Ry
     Harris-Foulkes estimate   =    -484.61178998 Ry
     estimated scf accuracy    <       0.00023815 Ry

     iteration # 10     ecut=    60.00 Ry     beta= 0.70
     Davidson diagonalization with overlap
     ethr =  4.25E-07,  avg # of iterations =  1.0

     total cpu time spent up to now is      153.1 secs

     total energy              =    -484.61175721 Ry
     Harris-Foulkes estimate   =    -484.61180077 Ry
     estimated scf accuracy    <       0.00026643 Ry

     iteration # 11     ecut=    60.00 Ry     beta= 0.70
     Davidson diagonalization with overlap
     ethr =  4.25E-07,  avg # of iterations =  3.3

     total cpu time spent up to now is      155.5 secs

     total energy              =    -484.61176748 Ry
     Harris-Foulkes estimate   =    -484.61177421 Ry
     estimated scf accuracy    <       0.00004935 Ry

     iteration # 12     ecut=    60.00 Ry     beta= 0.70
     Davidson diagonalization with overlap
     ethr =  8.81E-08,  avg # of iterations =  4.1

     total cpu time spent up to now is      158.2 secs

     total energy              =    -484.61177337 Ry
     Harris-Foulkes estimate   =    -484.61177496 Ry
     estimated scf accuracy    <       0.00001904 Ry

     iteration # 13     ecut=    60.00 Ry     beta= 0.70
     Davidson diagonalization with overlap
     ethr =  3.40E-08,  avg # of iterations =  2.2

     total cpu time spent up to now is      160.4 secs

     total energy              =    -484.61177173 Ry
     Harris-Foulkes estimate   =    -484.61177412 Ry
     estimated scf accuracy    <       0.00001500 Ry

     iteration # 14     ecut=    60.00 Ry     beta= 0.70
     Davidson diagonalization with overlap
     ethr =  2.68E-08,  avg # of iterations =  1.9

     total cpu time spent up to now is      162.6 secs

     total energy              =    -484.61177219 Ry
     Harris-Foulkes estimate   =    -484.61177233 Ry
     estimated scf accuracy    <       0.00000756 Ry

     iteration # 15     ecut=    60.00 Ry     beta= 0.70
     Davidson diagonalization with overlap
     ethr =  1.35E-08,  avg # of iterations =  3.0

     total cpu time spent up to now is      165.0 secs

     total energy              =    -484.61177071 Ry
     Harris-Foulkes estimate   =    -484.61177251 Ry
     estimated scf accuracy    <       0.00000648 Ry

     iteration # 16     ecut=    60.00 Ry     beta= 0.70
     Davidson diagonalization with overlap
     ethr =  1.16E-08,  avg # of iterations =  4.2

     total cpu time spent up to now is      167.8 secs

     total energy              =    -484.61177158 Ry
     Harris-Foulkes estimate   =    -484.61177171 Ry
     estimated scf accuracy    <       0.00000052 Ry

     iteration # 17     ecut=    60.00 Ry     beta= 0.70
     Davidson diagonalization with overlap
     ethr =  9.32E-10,  avg # of iterations =  4.8

     total cpu time spent up to now is      171.1 secs

     total energy              =    -484.61177176 Ry
     Harris-Foulkes estimate   =    -484.61177178 Ry
     estimated scf accuracy    <       0.00000005 Ry

     iteration # 18     ecut=    60.00 Ry     beta= 0.70
     Davidson diagonalization with overlap
     ethr =  8.91E-11,  avg # of iterations =  4.4

     total cpu time spent up to now is      174.3 secs

     total energy              =    -484.61177177 Ry
     Harris-Foulkes estimate   =    -484.61177178 Ry
     estimated scf accuracy    <          9.6E-09 Ry

     iteration # 19     ecut=    60.00 Ry     beta= 0.70
     Davidson diagonalization with overlap
     ethr =  1.72E-11,  avg # of iterations =  3.4

     total cpu time spent up to now is      177.1 secs

     total energy              =    -484.61177177 Ry
     Harris-Foulkes estimate   =    -484.61177177 Ry
     estimated scf accuracy    <          2.8E-09 Ry

     iteration # 20     ecut=    60.00 Ry     beta= 0.70
     Davidson diagonalization with overlap
     ethr =  4.94E-12,  avg # of iterations =  3.3

     total cpu time spent up to now is      179.6 secs

     total energy              =    -484.61177177 Ry
     Harris-Foulkes estimate   =    -484.61177177 Ry
     estimated scf accuracy    <          8.0E-10 Ry

     iteration # 21     ecut=    60.00 Ry     beta= 0.70
     Davidson diagonalization with overlap
     ethr =  1.43E-12,  avg # of iterations =  3.8

     total cpu time spent up to now is      182.3 secs

     End of self-consistent calculation

          k = 0.1271 0.0507 0.6815 (  4844 PWs)   bands (ev):

   -18.2175 -18.0791  -6.2857  -5.2698  -4.9113  -4.5064  -2.2167  -1.7057
    -1.5256  -1.3633  -0.9280  -0.7884   6.3328   7.3852   8.0385   8.2294
     8.7746   9.5999   9.6536   9.8283   9.8603  10.3019  10.9251  11.0901
    12.6344  12.7000  12.7646  13.5222  14.9078  15.9847  16.2797  16.5005
    16.6520  16.7016

          k = 0.1271 0.0507 1.3630 (  4828 PWs)   bands (ev):

   -18.0805 -18.0096  -5.7137  -5.6956  -4.4263  -4.3163  -2.6820  -2.4629
    -1.8420  -1.7468  -1.5108  -1.0520   5.1481   6.9469   7.2516   8.3819
     8.6091   9.7010   9.9740  10.0356  10.1122  11.0834  11.0883  11.2734
    13.2140  13.4295  13.4492  13.8309  16.3318  16.4657  16.5700  16.5815
    16.6182  16.7062

          k = 0.1271 0.0507-0.6815 (  4844 PWs)   bands (ev):

   -18.2175 -18.0791  -6.2857  -5.2698  -4.9113  -4.5064  -2.2167  -1.7057
    -1.5256  -1.3633  -0.9280  -0.7884   6.3328   7.3852   8.0385   8.2294
     8.7746   9.5999   9.6536   9.8283   9.8603  10.3019  10.9251  11.0901
    12.6344  12.7000  12.7646  13.5222  14.9078  15.9847  16.2797  16.5005
    16.6520  16.7016

          k = 0.1271 0.0507 0.0000 (  4895 PWs)   bands (ev):

   -18.3605 -18.1522  -6.8112  -4.7355  -4.5452  -3.9515  -1.7514  -1.7514
    -1.6008  -1.6008  -1.3714  -0.4407   7.5132   7.5132   8.2497   8.9369
     9.0791  10.1087  10.1087  10.4683  10.4683  11.1841  11.1842  11.3039
    11.4585  11.9317  11.9317  12.6792  13.2042  14.5418  15.5812  16.1066
    16.7586  16.7587

          k = 0.1278 0.4179 1.0223 (  4832 PWs)   bands (ev):

   -18.1336 -18.0562  -6.0179  -5.6944  -4.6912  -4.4470  -2.3042  -2.0584
    -1.7861  -1.5488  -0.9261  -0.7786   5.7827   7.3285   7.4162   8.4108
     8.7066   9.4713   9.7451   9.8463   9.9341  10.6125  10.6440  10.8483
    12.7840  13.1020  13.3514  13.6505  15.6287  16.3563  16.5163  16.5419
    16.6065  16.7187

          k = 0.1278 0.4179 1.7038 (  4832 PWs)   bands (ev):

   -18.1336 -18.0562  -6.0179  -5.6944  -4.6912  -4.4470  -2.3042  -2.0584
    -1.7861  -1.5488  -0.9261  -0.7786   5.7827   7.3285   7.4162   8.4108
     8.7066   9.4713   9.7451   9.8463   9.9341  10.6125  10.6440  10.8483
    12.7840  13.1020  13.3514  13.6505  15.6287  16.3563  16.5163  16.5419
    16.6065  16.7188

          k = 0.1278 0.4179-0.3408 (  4837 PWs)   bands (ev):

   -18.2656 -18.1368  -6.5450  -5.2827  -4.6575  -4.3463  -1.7236  -1.7004
    -1.6757  -1.4752  -0.8045  -0.5757   6.8754   7.6658   8.0466   8.8928
     9.0940   9.2169   9.7213  10.0119  10.1309  10.4495  10.4916  10.9366
    12.0213  12.3803  12.6275  13.1575  14.0037  15.3568  16.1280  16.3307
    16.7873  16.8028

          k = 0.1278 0.4179 0.3408 (  4837 PWs)   bands (ev):

   -18.2656 -18.1368  -6.5450  -5.2828  -4.6575  -4.3463  -1.7236  -1.7004
    -1.6757  -1.4752  -0.8045  -0.5757   6.8754   7.6658   8.0466   8.8928
     9.0940   9.2169   9.7213  10.0119  10.1309  10.4495  10.4916  10.9366
    12.0213  12.3803  12.6275  13.1575  14.0037  15.3568  16.1280  16.3307
    16.7873  16.8036

          k = 0.1256-0.6837-0.0000 (  4844 PWs)   bands (ev):

   -18.2175 -18.0791  -6.2857  -5.2698  -4.9113  -4.5064  -2.2167  -1.7057
    -1.5256  -1.3633  -0.9280  -0.7884   6.3328   7.3852   8.0384   8.2294
     8.7746   9.5999   9.6536   9.8283   9.8604  10.3019  10.9251  11.0901
    12.6344  12.7000  12.7646  13.5222  14.9078  15.9846  16.2797  16.5005
    16.6520  16.7016

          k = 0.1256-0.6837 0.6815 (  4840 PWs)   bands (ev):

   -18.1856 -18.1020  -6.2866  -5.7302  -4.9539  -4.4836  -1.9039  -1.5801
    -1.5341  -1.4172  -0.6393  -0.4009   6.2092   7.6854   8.1148   8.2198
     8.6801   9.1895   9.4553   9.5144   9.9762   9.9779  10.2519  10.8704
    12.0429  12.9502  13.1715  13.3035  14.5397  16.3050  16.4083  16.4912
    16.8820  16.8915

          k = 0.1256-0.6837-1.3630 (  4844 PWs)   bands (ev):

   -18.1791 -18.1188  -6.3712  -5.2802  -4.8332  -4.2215  -2.0425  -2.0379
    -1.8928  -1.7037  -0.6734  -0.5048   6.4930   7.3665   8.0081   8.5454
     8.8161   9.4048   9.5674   9.7590   9.8958  10.4126  10.7308  11.0197
    12.5945  12.7058  12.7317  13.7591  14.8833  15.9633  16.3398  16.5076
    16.6047  16.6474

          k = 0.1256-0.6837-0.6815 (  4840 PWs)   bands (ev):

   -18.1856 -18.1020  -6.2866  -5.7302  -4.9539  -4.4836  -1.9039  -1.5801
    -1.5341  -1.4172  -0.6393  -0.4009   6.2092   7.6854   8.1148   8.2198
     8.6801   9.1895   9.4553   9.5144   9.9762   9.9779  10.2519  10.8704
    12.0429  12.9502  13.1715  13.3035  14.5397  16.3050  16.4083  16.4912
    16.8762  16.8827

          k = 0.1263-0.3165 0.3408 (  4851 PWs)   bands (ev):

   -18.2915 -18.1094  -6.5146  -5.3641  -4.5343  -4.5252  -1.7036  -1.5955
    -1.5851  -1.2473  -1.1073  -0.5563   6.8277   7.6708   7.8271   8.9284
     8.9819   9.2229   9.8747  10.0750  10.1535  10.2416  10.5216  11.2992
    11.9310  12.3731  12.6516  13.0711  13.8703  15.5005  16.2014  16.2251
    16.8049  16.8282

          k = 0.1263-0.3165 1.0223 (  4840 PWs)   bands (ev):

   -18.1336 -18.0562  -6.0308  -5.6671  -4.7428  -4.4119  -2.2071  -2.0676
    -1.9545  -1.4708  -0.9144  -0.7845   5.7685   7.3130   7.4814   8.3915
     8.6261   9.6572   9.6600   9.7192  10.1295  10.5052  10.7332  10.7576
    12.7953  13.0223  13.3531  13.7278  15.6259  16.3194  16.5154  16.5812
    16.6079  16.7170

          k = 0.1263-0.3165-1.0223 (  4840 PWs)   bands (ev):

   -18.1336 -18.0562  -6.0308  -5.6671  -4.7428  -4.4119  -2.2071  -2.0676
    -1.9545  -1.4708  -0.9144  -0.7845   5.7685   7.3130   7.4814   8.3915
     8.6261   9.6572   9.6600   9.7192  10.1295  10.5052  10.7332  10.7576
    12.7953  13.0223  13.3531  13.7278  15.6259  16.3194  16.5154  16.5812
    16.6079  16.7170

          k = 0.1263-0.3165-0.3408 (  4851 PWs)   bands (ev):

   -18.2915 -18.1094  -6.5146  -5.3641  -4.5343  -4.5252  -1.7036  -1.5955
    -1.5851  -1.2473  -1.1073  -0.5563   6.8277   7.6708   7.8271   8.9284
     8.9819   9.2229   9.8747  10.0750  10.1535  10.2416  10.5216  11.2992
    11.9310  12.3731  12.6516  13.0711  13.8703  15.5004  16.2014  16.2251
    16.8049  16.8281

          k = 0.3804-0.2151 1.0223 (  4832 PWs)   bands (ev):

   -18.1336 -18.0562  -6.0179  -5.6944  -4.6912  -4.4470  -2.3042  -2.0584
    -1.7861  -1.5488  -0.9261  -0.7786   5.7827   7.3285   7.4162   8.4108
     8.7066   9.4713   9.7451   9.8463   9.9341  10.6125  10.6440  10.8483
    12.7840  13.1020  13.3514  13.6505  15.6287  16.3563  16.5163  16.5419
    16.6066  16.7188

          k = 0.3804-0.2151 1.7038 (  4832 PWs)   bands (ev):

   -18.1336 -18.0562  -6.0178  -5.6944  -4.6912  -4.4470  -2.3042  -2.0584
    -1.7861  -1.5488  -0.9261  -0.7786   5.7827   7.3285   7.4162   8.4108
     8.7066   9.4713   9.7451   9.8463   9.9341  10.6125  10.6440  10.8483
    12.7840  13.1020  13.3514  13.6505  15.6287  16.3563  16.5163  16.5419
    16.6065  16.7188

          k = 0.3804-0.2151-0.3408 (  4837 PWs)   bands (ev):

   -18.2656 -18.1368  -6.5450  -5.2827  -4.6575  -4.3463  -1.7236  -1.7004
    -1.6757  -1.4752  -0.8045  -0.5757   6.8754   7.6658   8.0466   8.8928
     9.0940   9.2169   9.7213  10.0119  10.1309  10.4495  10.4916  10.9366
    12.0213  12.3803  12.6275  13.1575  14.0037  15.3568  16.1280  16.3307
    16.7873  16.8032

          k = 0.3804-0.2151 0.3408 (  4837 PWs)   bands (ev):

   -18.2656 -18.1368  -6.5450  -5.2828  -4.6575  -4.3463  -1.7236  -1.7004
    -1.6757  -1.4752  -0.8045  -0.5757   6.8754   7.6658   8.0466   8.8928
     9.0940   9.2169   9.7213  10.0119  10.1309  10.4495  10.4916  10.9366
    12.0213  12.3803  12.6275  13.1575  14.0037  15.3568  16.1280  16.3307
    16.7873  16.8031

          k = 0.3812 0.1521 1.3630 (  4828 PWs)   bands (ev):

   -18.0805 -18.0096  -5.7137  -5.6956  -4.4263  -4.3163  -2.6820  -2.4629
    -1.8420  -1.7468  -1.5108  -1.0520   5.1481   6.9469   7.2516   8.3819
     8.6090   9.7010   9.9739  10.0356  10.1122  11.0834  11.0884  11.2734
    13.2140  13.4295  13.4492  13.8309  16.3318  16.4657  16.5700  16.5816
    16.6181  16.7062

          k = 0.3812 0.1521 2.0446 (  4844 PWs)   bands (ev):

   -18.1791 -18.1188  -6.3712  -5.2802  -4.8332  -4.2215  -2.0425  -2.0379
    -1.8928  -1.7037  -0.6733  -0.5048   6.4930   7.3665   8.0081   8.5454
     8.8161   9.4048   9.5674   9.7590   9.8958  10.4126  10.7308  11.0197
    12.5945  12.7058  12.7317  13.7590  14.8833  15.9633  16.3398  16.5076
    16.6047  16.6474

          k = 0.3812 0.1521 0.0000 (  4842 PWs)   bands (ev):

   -18.3026 -18.2135  -6.7478  -4.7356  -4.6863  -3.8332  -1.8459  -1.8459
    -1.4964  -1.4964  -1.2162  -0.7466   7.4633   7.4633   8.6989   8.9687
     9.5472   9.8866   9.8867  10.4907  10.6891  10.6891  11.1359  11.1360
    11.3042  12.0844  12.0844  12.6707  13.4407  14.0604  15.8572  16.1958
    16.6320  16.7533

          k = 0.3812 0.1521 0.6815 (  4844 PWs)   bands (ev):

   -18.1791 -18.1188  -6.3712  -5.2802  -4.8332  -4.2215  -2.0425  -2.0379
    -1.8928  -1.7037  -0.6733  -0.5048   6.4930   7.3665   8.0081   8.5454
     8.8161   9.4048   9.5674   9.7590   9.8958  10.4126  10.7308  11.0197
    12.5945  12.7058  12.7317  13.7590  14.8833  15.9633  16.3398  16.5076
    16.6047  16.6474

          k = 0.3789-0.9494 0.3408 (  4840 PWs)   bands (ev):

   -18.1336 -18.0562  -6.0308  -5.6671  -4.7428  -4.4119  -2.2071  -2.0677
    -1.9545  -1.4708  -0.9144  -0.7844   5.7685   7.3130   7.4814   8.3915
     8.6261   9.6572   9.6600   9.7192  10.1295  10.5053  10.7332  10.7576
    12.7953  13.0223  13.3531  13.7278  15.6259  16.3194  16.5154  16.5812
    16.6079  16.7170

          k = 0.3789-0.9494 1.0223 (  4830 PWs)   bands (ev):

   -18.2032 -18.2007  -6.5752  -5.1049  -4.8763  -4.1434  -2.0281  -1.7445
    -1.6579  -1.4260  -0.6697  -0.6129   6.9208   7.6596   8.2770   9.0035
     9.0163   9.3619   9.4905  10.0808  10.1885  10.4189  10.4436  10.6291
    12.1023  12.3862  12.6347  13.1836  14.1114  15.2322  16.0060  16.4581
    16.7387  16.8012

          k = 0.3789-0.9494-1.0223 (  4830 PWs)   bands (ev):

   -18.2032 -18.2007  -6.5752  -5.1049  -4.8763  -4.1434  -2.0281  -1.7445
    -1.6579  -1.4260  -0.6697  -0.6129   6.9208   7.6596   8.2770   9.0035
     9.0163   9.3619   9.4905  10.0808  10.1885  10.4189  10.4436  10.6291
    12.1023  12.3862  12.6347  13.1836  14.1114  15.2322  16.0060  16.4581
    16.7387  16.8145

          k = 0.3789-0.9494-0.3408 (  4840 PWs)   bands (ev):

   -18.1336 -18.0562  -6.0308  -5.6671  -4.7428  -4.4119  -2.2071  -2.0677
    -1.9545  -1.4708  -0.9144  -0.7844   5.7685   7.3130   7.4814   8.3915
     8.6261   9.6572   9.6600   9.7192  10.1295  10.5053  10.7332  10.7576
    12.7953  13.0223  13.3531  13.7278  15.6260  16.3194  16.5154  16.5812
    16.6079  16.7169

          k = 0.3797-0.5823 0.6815 (  4840 PWs)   bands (ev):

   -18.1856 -18.1020  -6.2866  -5.7302  -4.9539  -4.4836  -1.9039  -1.5801
    -1.5341  -1.4172  -0.6393  -0.4009   6.2092   7.6854   8.1148   8.2198
     8.6801   9.1895   9.4553   9.5144   9.9762   9.9779  10.2519  10.8704
    12.0429  12.9502  13.1715  13.3035  14.5397  16.3050  16.4083  16.4912
    16.8769  16.8916

          k = 0.3797-0.5823 1.3630 (  4844 PWs)   bands (ev):

   -18.1791 -18.1188  -6.3712  -5.2802  -4.8332  -4.2215  -2.0425  -2.0379
    -1.8928  -1.7037  -0.6734  -0.5048   6.4930   7.3665   8.0081   8.5454
     8.8161   9.4048   9.5674   9.7590   9.8958  10.4126  10.7308  11.0197
    12.5945  12.7058  12.7317  13.7591  14.8833  15.9633  16.3398  16.5076
    16.6047  16.6474

          k = 0.3797-0.5823-0.6815 (  4840 PWs)   bands (ev):

   -18.1856 -18.1020  -6.2866  -5.7302  -4.9539  -4.4836  -1.9039  -1.5801
    -1.5341  -1.4172  -0.6393  -0.4009   6.2092   7.6854   8.1148   8.2198
     8.6801   9.1895   9.4553   9.5144   9.9762   9.9779  10.2519  10.8704
    12.0429  12.9502  13.1715  13.3035  14.5397  16.3050  16.4083  16.4912
    16.8765  16.8916

          k = 0.3797-0.5823 0.0000 (  4844 PWs)   bands (ev):

   -18.2175 -18.0791  -6.2857  -5.2698  -4.9113  -4.5064  -2.2167  -1.7057
    -1.5256  -1.3633  -0.9280  -0.7884   6.3328   7.3852   8.0384   8.2294
     8.7746   9.5999   9.6536   9.8283   9.8604  10.3019  10.9251  11.0901
    12.6344  12.7000  12.7646  13.5222  14.9078  15.9846  16.2797  16.5005
    16.6520  16.7016

     the Fermi energy is    13.8256 ev

!    total energy              =    -484.61177177 Ry
     Harris-Foulkes estimate   =    -484.61177177 Ry
     estimated scf accuracy    <          2.9E-10 Ry

     The total energy is the sum of the following terms:

     one-electron contribution =     -55.35027251 Ry
     hartree contribution      =      78.28573143 Ry
     xc contribution           =    -220.30893506 Ry
     ewald contribution        =    -287.23637101 Ry
     smearing contrib. (-TS)   =      -0.00192463 Ry

     convergence has been achieved in  21 iterations

     Forces acting on atoms (cartesian axes, Ry/au):

     atom    1 type  1   force =     0.00143235    0.00057173   -0.00000035
     atom    2 type  1   force =    -0.00143235   -0.00057173    0.00000035
     atom    3 type  3   force =    -0.00405667   -0.00161910    0.00000010
     atom    4 type  3   force =     0.00405667    0.00161910   -0.00000010
     atom    5 type  2   force =     0.00000000    0.00000000    0.00000000
     atom    6 type  3   force =     0.00000000    0.00000000    0.00000000
     atom    7 type  3   force =     0.00000000    0.00000000    0.00000000

     Total force =     0.006551     Total SCF correction =     0.000038


     Computing stress (Cartesian axis) and pressure

          total   stress  (Ry/bohr**3)                   (kbar)     P=    2.00
  -0.00002086  -0.00002240   0.00000001         -3.07     -3.30      0.00
  -0.00002240   0.00002633   0.00000000         -3.30      3.87      0.00
   0.00000001   0.00000000   0.00003532          0.00      0.00      5.20


     number of scf cycles    =   3
     number of bfgs steps    =   2

     enthalpy old            =    -484.6115205609 Ry
     enthalpy new            =    -484.6117717743 Ry

     CASE: enthalpy_new < enthalpy_old

     new trust radius        =       0.0102596750 bohr
     new conv_thr            =       0.0000000003 Ry

     new unit-cell volume =    593.70474 a.u.^3 (    87.97796 Ang^3 )
     density =      7.55927 g/cm^3

CELL_PARAMETERS (alat= 13.41856732)
   0.982797821  -0.003013276   0.000001323
   0.710633463   0.678896764   0.000001385
  -0.846716624  -0.337942102   0.367105568

ATOMIC_POSITIONS (crystal)
La       0.637521140   0.637521231   0.000000201
La       0.362478860   0.362478769  -0.000000201
O        0.818665103   0.818665082   0.000000100
O        0.181334897   0.181334918  -0.000000100
Ni       0.000000000   0.000000000   0.000000000
O        0.000002000   0.500002000   0.500003000
O        0.500002000   0.000002000   0.500003000



     Writing output data file La2NiO4.save
     NEW-OLD atomic charge density approx. for the potential

     Check: negative/imaginary core charge=   -0.000360    0.000000
     extrapolated charge   55.95946, renormalised to   56.00000

     total cpu time spent up to now is      184.2 secs

     Self-consistent Calculation

     iteration #  1     ecut=    60.00 Ry     beta= 0.70
     Davidson diagonalization with overlap
     ethr =  1.00E-06,  avg # of iterations =  4.0

     total cpu time spent up to now is      187.9 secs

     total energy              =    -484.61138861 Ry
     Harris-Foulkes estimate   =    -484.66186970 Ry
     estimated scf accuracy    <       0.00044737 Ry

     iteration #  2     ecut=    60.00 Ry     beta= 0.70
     Davidson diagonalization with overlap
     ethr =  7.99E-07,  avg # of iterations =  6.7

     total cpu time spent up to now is      192.3 secs

     total energy              =    -484.61089302 Ry
     Harris-Foulkes estimate   =    -484.61330089 Ry
     estimated scf accuracy    <       0.01217765 Ry

     iteration #  3     ecut=    60.00 Ry     beta= 0.70
     Davidson diagonalization with overlap
     ethr =  7.99E-07,  avg # of iterations =  6.3

     total cpu time spent up to now is      196.1 secs

     total energy              =    -484.61187976 Ry
     Harris-Foulkes estimate   =    -484.61192620 Ry
     estimated scf accuracy    <       0.00029360 Ry

     iteration #  4     ecut=    60.00 Ry     beta= 0.70
     Davidson diagonalization with overlap
     ethr =  5.24E-07,  avg # of iterations =  1.2

     total cpu time spent up to now is      198.2 secs

     total energy              =    -484.61185833 Ry
     Harris-Foulkes estimate   =    -484.61189310 Ry
     estimated scf accuracy    <       0.00018344 Ry

     iteration #  5     ecut=    60.00 Ry     beta= 0.70
     Davidson diagonalization with overlap
     ethr =  3.28E-07,  avg # of iterations =  3.0

     total cpu time spent up to now is      200.7 secs

     total energy              =    -484.61186969 Ry
     Harris-Foulkes estimate   =    -484.61187431 Ry
     estimated scf accuracy    <       0.00002375 Ry

     iteration #  6     ecut=    60.00 Ry     beta= 0.70
     Davidson diagonalization with overlap
     ethr =  4.24E-08,  avg # of iterations =  5.0

     total cpu time spent up to now is      204.0 secs

     total energy              =    -484.61187596 Ry
     Harris-Foulkes estimate   =    -484.61187654 Ry
     estimated scf accuracy    <       0.00000384 Ry

     iteration #  7     ecut=    60.00 Ry     beta= 0.70
     Davidson diagonalization with overlap
     ethr =  6.85E-09,  avg # of iterations =  2.4

     total cpu time spent up to now is      206.4 secs

     total energy              =    -484.61187557 Ry
     Harris-Foulkes estimate   =    -484.61187621 Ry
     estimated scf accuracy    <       0.00000220 Ry

     iteration #  8     ecut=    60.00 Ry     beta= 0.70
     Davidson diagonalization with overlap
     ethr =  3.92E-09,  avg # of iterations =  3.9

     total cpu time spent up to now is      209.6 secs

     total energy              =    -484.61187531 Ry
     Harris-Foulkes estimate   =    -484.61187650 Ry
     estimated scf accuracy    <       0.00000298 Ry

     iteration #  9     ecut=    60.00 Ry     beta= 0.70
     Davidson diagonalization with overlap
     ethr =  3.92E-09,  avg # of iterations =  2.9

     total cpu time spent up to now is      212.3 secs

     total energy              =    -484.61187580 Ry
     Harris-Foulkes estimate   =    -484.61187581 Ry
     estimated scf accuracy    <       0.00000003 Ry

     iteration # 10     ecut=    60.00 Ry     beta= 0.70
     Davidson diagonalization with overlap
     ethr =  5.53E-11,  avg # of iterations =  5.8

     total cpu time spent up to now is      216.7 secs

     total energy              =    -484.61187585 Ry
     Harris-Foulkes estimate   =    -484.61187586 Ry
     estimated scf accuracy    <       0.00000004 Ry

     iteration # 11     ecut=    60.00 Ry     beta= 0.70
     Davidson diagonalization with overlap
     ethr =  5.53E-11,  avg # of iterations =  1.4

     total cpu time spent up to now is      218.8 secs

     total energy              =    -484.61187585 Ry
[...]

     total energy              =    -484.60920507 Ry
     Harris-Foulkes estimate   =    -484.61923083 Ry
     estimated scf accuracy    <       0.03509887 Ry

     iteration #  6     ecut=    60.00 Ry     beta= 0.70
     Davidson diagonalization with overlap
     ethr =  6.27E-05,  avg # of iterations =  5.8

     total cpu time spent up to now is      395.8 secs

     total energy              =    -484.60806063 Ry
     Harris-Foulkes estimate   =    -484.61486547 Ry
     estimated scf accuracy    <       0.01439371 Ry

     iteration #  7     ecut=    60.00 Ry     beta= 0.70
     Davidson diagonalization with overlap
     ethr =  2.57E-05,  avg # of iterations =  7.4

     total cpu time spent up to now is      399.9 secs

     total energy              =    -484.61187709 Ry
     Harris-Foulkes estimate   =    -484.61252501 Ry
     estimated scf accuracy    <       0.00213891 Ry

     iteration #  8     ecut=    60.00 Ry     beta= 0.70
     Davidson diagonalization with overlap
     c_bands:  1 eigenvalues not converged
     c_bands:  1 eigenvalues not converged
     c_bands:  1 eigenvalues not converged
     ethr =  3.82E-06,  avg # of iterations =  7.5

     total cpu time spent up to now is      403.2 secs

     total energy              =    -484.61213201 Ry
     Harris-Foulkes estimate   =    -484.61220169 Ry
     estimated scf accuracy    <       0.00017114 Ry

     iteration #  9     ecut=    60.00 Ry     beta= 0.70
     Davidson diagonalization with overlap
     ethr =  3.06E-07,  avg # of iterations =  6.9

     total cpu time spent up to now is      407.3 secs

     total energy              =    -484.61221349 Ry
     Harris-Foulkes estimate   =    -484.61221656 Ry
     estimated scf accuracy    <       0.00000800 Ry

     iteration # 10     ecut=    60.00 Ry     beta= 0.70
     Davidson diagonalization with overlap
     c_bands:  1 eigenvalues not converged
     ethr =  1.43E-08,  avg # of iterations =  5.0

     total cpu time spent up to now is      410.5 secs

     total energy              =    -484.61221579 Ry
     Harris-Foulkes estimate   =    -484.61221587 Ry
     estimated scf accuracy    <       0.00000020 Ry

     iteration # 11     ecut=    60.00 Ry     beta= 0.70
     Davidson diagonalization with overlap
     ethr =  3.62E-10,  avg # of iterations =  6.6

     total cpu time spent up to now is      414.8 secs

     total energy              =    -484.61221595 Ry
     Harris-Foulkes estimate   =    -484.61221599 Ry
     estimated scf accuracy    <       0.00000010 Ry

     iteration # 12     ecut=    60.00 Ry     beta= 0.70
     Davidson diagonalization with overlap
     ethr =  1.80E-10,  avg # of iterations =  2.4

     total cpu time spent up to now is      417.3 secs

     total energy              =    -484.61221596 Ry
     Harris-Foulkes estimate   =    -484.61221596 Ry
     estimated scf accuracy    <          4.4E-09 Ry

     iteration # 13     ecut=    60.00 Ry     beta= 0.70
     Davidson diagonalization with overlap
     ethr =  7.90E-12,  avg # of iterations =  4.4

     total cpu time spent up to now is      420.7 secs

     total energy              =    -484.61221596 Ry
     Harris-Foulkes estimate   =    -484.61221596 Ry
     estimated scf accuracy    <          5.7E-10 Ry

     iteration # 14     ecut=    60.00 Ry     beta= 0.70
     Davidson diagonalization with overlap
     ethr =  1.03E-12,  avg # of iterations =  3.5

     total cpu time spent up to now is      423.5 secs

     End of self-consistent calculation

          k = 0.1275 0.0509 0.6799 (  4672 PWs)   bands (ev):

   -18.2386 -18.0974  -6.2951  -5.2853  -4.9578  -4.5455  -2.2341  -1.7366
    -1.5370  -1.3849  -0.9292  -0.7945   6.3258   7.3846   8.0277   8.2172
     8.7641   9.5838   9.6321   9.8096   9.8168  10.2665  10.9101  11.0507
    12.6010  12.6645  12.7330  13.4891  14.8488  15.9677  16.2558  16.4938
    16.6493  16.6797

          k = 0.1275 0.0509 1.3598 (  4650 PWs)   bands (ev):

   -18.1035 -18.0310  -5.7292  -5.7106  -4.4930  -4.3775  -2.6926  -2.4682
    -1.8320  -1.7541  -1.5126  -1.0376   5.1480   6.9551   7.2543   8.3771
     8.6084   9.6859   9.9190  10.0233  10.0618  11.0500  11.0515  11.2257
    13.1796  13.3861  13.4065  13.7957  16.3425  16.4739  16.5478  16.5634
    16.6025  16.6929

          k = 0.1275 0.0509-0.6799 (  4672 PWs)   bands (ev):

   -18.2386 -18.0974  -6.2951  -5.2853  -4.9578  -4.5455  -2.2341  -1.7366
    -1.5370  -1.3849  -0.9292  -0.7945   6.3258   7.3846   8.0277   8.2172
     8.7641   9.5838   9.6321   9.8096   9.8168  10.2665  10.9101  11.0507
    12.6010  12.6645  12.7330  13.4891  14.8488  15.9677  16.2558  16.4938
    16.6493  16.6800

          k = 0.1275 0.0509 0.0000 (  4674 PWs)   bands (ev):

   -18.3796 -18.1671  -6.8182  -4.7507  -4.5999  -4.0099  -1.7778  -1.7778
    -1.6232  -1.6232  -1.3560  -0.4341   7.5033   7.5033   8.2266   8.9164
     9.0569  10.0688  10.0688  10.4342  10.4342  11.1451  11.1451  11.2835
    11.4398  11.9075  11.9075  12.6417  13.1728  14.5281  15.5943  16.0772
    16.7476  16.7862

          k = 0.1290 0.4175 1.0198 (  4668 PWs)   bands (ev):

   -18.1555 -18.0765  -6.0290  -5.7158  -4.7243  -4.4954  -2.3267  -2.0757
    -1.8073  -1.5595  -0.9294  -0.7749   5.7815   7.3284   7.4115   8.4011
     8.7067   9.4529   9.7116   9.8183   9.8943  10.5897  10.6134  10.8231
    12.7479  13.0684  13.3092  13.6148  15.5662  16.3473  16.4986  16.5340
    16.5955  16.7053

          k = 0.1289 0.4175 1.6997 (  4668 PWs)   bands (ev):

   -18.1555 -18.0765  -6.0290  -5.7158  -4.7243  -4.4954  -2.3267  -2.0757
    -1.8073  -1.5595  -0.9294  -0.7749   5.7815   7.3284   7.4115   8.4011
     8.7067   9.4529   9.7116   9.8183   9.8943  10.5897  10.6134  10.8231
    12.7479  13.0684  13.3092  13.6148  15.5662  16.3473  16.4986  16.5340
    16.5955  16.7053

          k = 0.1290 0.4175-0.3399 (  4671 PWs)   bands (ev):

   -18.2853 -18.1539  -6.5540  -5.3081  -4.6917  -4.3806  -1.7315  -1.7290
    -1.7208  -1.4991  -0.8100  -0.5767   6.8730   7.6540   8.0320   8.8783
     9.0699   9.1970   9.6909   9.9866  10.1056  10.4208  10.4688  10.9159
    11.9967  12.3453  12.5954  13.1188  13.9600  15.3349  16.1010  16.3292
    16.7792  16.7905

          k = 0.1290 0.4175 0.3399 (  4671 PWs)   bands (ev):

   -18.2853 -18.1539  -6.5540  -5.3081  -4.6917  -4.3806  -1.7315  -1.7290
    -1.7208  -1.4991  -0.8100  -0.5767   6.8730   7.6540   8.0320   8.8783
     9.0699   9.1970   9.6909   9.9866  10.1056  10.4208  10.4688  10.9159
    11.9967  12.3453  12.5954  13.1188  13.9600  15.3349  16.1010  16.3292
    16.7793  16.7914

          k = 0.1245-0.6823-0.0000 (  4672 PWs)   bands (ev):

   -18.2386 -18.0974  -6.2951  -5.2853  -4.9578  -4.5455  -2.2341  -1.7366
    -1.5370  -1.3849  -0.9292  -0.7945   6.3258   7.3846   8.0277   8.2172
     8.7641   9.5838   9.6321   9.8096   9.8168  10.2665  10.9101  11.0507
    12.6010  12.6645  12.7330  13.4891  14.8488  15.9677  16.2558  16.4938
    16.6493  16.6797

          k = 0.1245-0.6823 0.6799 (  4675 PWs)   bands (ev):

   -18.2063 -18.1211  -6.2956  -5.7534  -4.9763  -4.5121  -1.9406  -1.6098
    -1.5538  -1.4444  -0.6447  -0.4172   6.2137   7.6742   8.0966   8.2081
     8.6673   9.1688   9.4400   9.4965   9.9576   9.9605  10.2324  10.8578
    12.0167  12.9099  13.1341  13.2611  14.4878  16.2799  16.3915  16.4740
    16.8628  16.8818

          k = 0.1245-0.6823-1.3598 (  4678 PWs)   bands (ev):

   -18.1994 -18.1380  -6.3848  -5.2961  -4.8801  -4.2510  -2.0768  -2.0514
    -1.9131  -1.7185  -0.6735  -0.5160   6.4888   7.3652   7.9936   8.5385
     8.8041   9.3912   9.5208   9.7408   9.8774  10.3873  10.6961  10.9867
    12.5617  12.6750  12.6968  13.7232  14.8251  15.9409  16.3113  16.5079
    16.6006  16.6274

          k = 0.1245-0.6823-0.6799 (  4675 PWs)   bands (ev):

   -18.2063 -18.1211  -6.2956  -5.7534  -4.9763  -4.5121  -1.9406  -1.6098
    -1.5538  -1.4444  -0.6447  -0.4172   6.2137   7.6742   8.0966   8.2081
     8.6673   9.1688   9.4400   9.4965   9.9576   9.9605  10.2324  10.8578
    12.0167  12.9099  13.1341  13.2611  14.4878  16.2799  16.3915  16.4740
    16.8686  16.8816

          k = 0.1260-0.3157 0.3399 (  4679 PWs)   bands (ev):

   -18.3117 -18.1259  -6.5221  -5.3896  -4.5744  -4.5575  -1.7414  -1.6211
    -1.6123  -1.2713  -1.0988  -0.5582   6.8244   7.6586   7.8102   8.9155
     8.9611   9.2064   9.8417  10.0489  10.1331  10.2030  10.4953  11.2835
    11.9042  12.3377  12.6184  13.0357  13.8257  15.4815  16.1977  16.2029
    16.7922  16.8184

          k = 0.1260-0.3157 1.0198 (  4664 PWs)   bands (ev):

   -18.1555 -18.0765  -6.0437  -5.6851  -4.7817  -4.4561  -2.2380  -2.0719
    -1.9723  -1.4960  -0.9011  -0.7909   5.7663   7.3122   7.4795   8.3809
     8.6230   9.6302   9.6502   9.6759  10.0955  10.4776  10.6971  10.7406
    12.7595  12.9861  13.3109  13.6934  15.5640  16.3111  16.4996  16.5604
    16.6090  16.7032

          k = 0.1260-0.3157-1.0198 (  4664 PWs)   bands (ev):

   -18.1555 -18.0765  -6.0437  -5.6851  -4.7817  -4.4561  -2.2380  -2.0719
    -1.9723  -1.4960  -0.9011  -0.7909   5.7663   7.3122   7.4795   8.3809
     8.6230   9.6302   9.6502   9.6759  10.0955  10.4776  10.6971  10.7406
    12.7595  12.9861  13.3110  13.6934  15.5640  16.3111  16.4996  16.5604
    16.6089  16.7032

          k = 0.1260-0.3157-0.3399 (  4679 PWs)   bands (ev):

   -18.3117 -18.1259  -6.5221  -5.3896  -4.5744  -4.5575  -1.7414  -1.6211
    -1.6123  -1.2713  -1.0988  -0.5582   6.8244   7.6586   7.8102   8.9155
     8.9611   9.2064   9.8417  10.0489  10.1331  10.2030  10.4953  11.2835
    11.9042  12.3377  12.6184  13.0357  13.8257  15.4815  16.1977  16.2029
    16.7921  16.8066

          k = 0.3810-0.2140 1.0198 (  4668 PWs)   bands (ev):

   -18.1555 -18.0765  -6.0290  -5.7158  -4.7243  -4.4954  -2.3267  -2.0757
    -1.8073  -1.5595  -0.9294  -0.7749   5.7815   7.3284   7.4115   8.4011
     8.7067   9.4529   9.7116   9.8183   9.8943  10.5897  10.6134  10.8231
    12.7479  13.0684  13.3092  13.6148  15.5662  16.3473  16.4986  16.5340
    16.5955  16.7053

          k = 0.3810-0.2140 1.6997 (  4668 PWs)   bands (ev):

   -18.1555 -18.0765  -6.0290  -5.7158  -4.7243  -4.4954  -2.3267  -2.0757
    -1.8073  -1.5595  -0.9294  -0.7749   5.7815   7.3284   7.4115   8.4011
     8.7067   9.4529   9.7116   9.8183   9.8943  10.5897  10.6134  10.8231
    12.7479  13.0684  13.3092  13.6148  15.5662  16.3473  16.4986  16.5340
    16.5955  16.7053

          k = 0.3810-0.2140-0.3399 (  4671 PWs)   bands (ev):

   -18.2853 -18.1539  -6.5540  -5.3081  -4.6917  -4.3806  -1.7315  -1.7290
    -1.7208  -1.4991  -0.8100  -0.5767   6.8730   7.6540   8.0320   8.8783
     9.0699   9.1970   9.6909   9.9866  10.1056  10.4208  10.4688  10.9159
    11.9967  12.3453  12.5954  13.1188  13.9600  15.3349  16.1010  16.3292
    16.7792  16.7920

          k = 0.3810-0.2140 0.3399 (  4671 PWs)   bands (ev):

   -18.2853 -18.1539  -6.5540  -5.3081  -4.6917  -4.3806  -1.7315  -1.7290
    -1.7208  -1.4991  -0.8100  -0.5767   6.8730   7.6540   8.0320   8.8783
     9.0699   9.1970   9.6909   9.9866  10.1056  10.4208  10.4688  10.9159
    11.9967  12.3453  12.5954  13.1188  13.9600  15.3349  16.1010  16.3292
    16.7792  16.7919

          k = 0.3824 0.1526 1.3598 (  4650 PWs)   bands (ev):

   -18.1035 -18.0310  -5.7292  -5.7106  -4.4930  -4.3775  -2.6926  -2.4682
    -1.8320  -1.7541  -1.5126  -1.0376   5.1480   6.9551   7.2543   8.3771
     8.6084   9.6859   9.9190  10.0233  10.0618  11.0500  11.0515  11.2257
    13.1796  13.3861  13.4065  13.7957  16.3425  16.4739  16.5478  16.5634
    16.6025  16.7388

          k = 0.3824 0.1526 2.0397 (  4678 PWs)   bands (ev):

   -18.1994 -18.1380  -6.3848  -5.2961  -4.8801  -4.2510  -2.0768  -2.0514
    -1.9131  -1.7185  -0.6735  -0.5160   6.4888   7.3652   7.9936   8.5385
     8.8041   9.3912   9.5208   9.7408   9.8774  10.3873  10.6961  10.9867
    12.5617  12.6750  12.6968  13.7232  14.8251  15.9409  16.3113  16.5079
    16.6006  16.6274

          k = 0.3825 0.1526 0.0000 (  4658 PWs)   bands (ev):

   -18.3206 -18.2295  -6.7529  -4.7508  -4.7489  -3.8796  -1.8740  -1.8740
    -1.5165  -1.5165  -1.2007  -0.7505   7.4516   7.4516   8.6817   8.9492
     9.5318   9.8434   9.8434  10.4737  10.6567  10.6567  11.0985  11.0985
    11.2838  12.0630  12.0630  12.6336  13.4013  14.0431  15.8246  16.2083
    16.5933  16.7426

          k = 0.3825 0.1526 0.6799 (  4678 PWs)   bands (ev):

   -18.1994 -18.1380  -6.3848  -5.2961  -4.8801  -4.2510  -2.0768  -2.0514
    -1.9131  -1.7185  -0.6735  -0.5160   6.4888   7.3652   7.9936   8.5385
     8.8041   9.3912   9.5208   9.7408   9.8774  10.3873  10.6961  10.9867
    12.5617  12.6750  12.6968  13.7232  14.8251  15.9409  16.3113  16.5079
    16.6006  16.6274

          k = 0.3780-0.9472 0.3399 (  4664 PWs)   bands (ev):

   -18.1555 -18.0765  -6.0437  -5.6851  -4.7817  -4.4561  -2.2380  -2.0719
    -1.9723  -1.4960  -0.9011  -0.7909   5.7663   7.3122   7.4795   8.3809
     8.6230   9.6302   9.6502   9.6759  10.0955  10.4776  10.6971  10.7406
    12.7595  12.9861  13.3109  13.6934  15.5640  16.3111  16.4996  16.5604
    16.6090  16.7032

          k = 0.3780-0.9472 1.0198 (  4680 PWs)   bands (ev):

   -18.2213 -18.2194  -6.5858  -5.1173  -4.9246  -4.1718  -2.0413  -1.7741
    -1.7023  -1.4488  -0.6770  -0.6123   6.9193   7.6479   8.2637   8.9757
     9.0087   9.3224   9.4715  10.0558  10.1739  10.3921  10.4251  10.5990
    12.0795  12.3512  12.6034  13.1422  14.0657  15.2073  15.9773  16.4559
    16.7320  16.7889

          k = 0.3780-0.9472-1.0198 (  4680 PWs)   bands (ev):

   -18.2213 -18.2194  -6.5858  -5.1173  -4.9246  -4.1718  -2.0413  -1.7741
    -1.7023  -1.4488  -0.6770  -0.6123   6.9193   7.6479   8.2637   8.9757
     9.0087   9.3224   9.4715  10.0558  10.1739  10.3921  10.4251  10.5990
    12.0795  12.3512  12.6034  13.1422  14.0657  15.2073  15.9773  16.4559
    16.7320  16.7888

          k = 0.3780-0.9472-0.3399 (  4664 PWs)   bands (ev):

   -18.1555 -18.0765  -6.0437  -5.6851  -4.7817  -4.4561  -2.2380  -2.0719
    -1.9723  -1.4960  -0.9011  -0.7909   5.7663   7.3122   7.4795   8.3809
     8.6230   9.6302   9.6502   9.6759  10.0955  10.4776  10.6971  10.7406
    12.7595  12.9861  13.3110  13.6934  15.5640  16.3111  16.4996  16.5604
    16.6089  16.7032

          k = 0.3795-0.5806 0.6799 (  4675 PWs)   bands (ev):

   -18.2063 -18.1211  -6.2956  -5.7534  -4.9763  -4.5121  -1.9406  -1.6098
    -1.5538  -1.4444  -0.6447  -0.4172   6.2137   7.6742   8.0966   8.2081
     8.6673   9.1688   9.4400   9.4965   9.9576   9.9605  10.2324  10.8578
    12.0167  12.9099  13.1341  13.2611  14.4878  16.2799  16.3915  16.4740
    16.8818  16.9108

          k = 0.3795-0.5806 1.3598 (  4678 PWs)   bands (ev):

   -18.1994 -18.1380  -6.3848  -5.2961  -4.8801  -4.2510  -2.0768  -2.0514
    -1.9131  -1.7185  -0.6735  -0.5160   6.4888   7.3652   7.9936   8.5385
     8.8041   9.3912   9.5208   9.7408   9.8774  10.3873  10.6961  10.9867
    12.5617  12.6750  12.6968  13.7232  14.8251  15.9409  16.3113  16.5079
    16.6006  16.6274

          k = 0.3795-0.5806-0.6799 (  4675 PWs)   bands (ev):

   -18.2063 -18.1211  -6.2956  -5.7534  -4.9763  -4.5121  -1.9406  -1.6098
    -1.5538  -1.4444  -0.6447  -0.4172   6.2137   7.6742   8.0966   8.2081
     8.6673   9.1688   9.4400   9.4965   9.9576   9.9605  10.2324  10.8578
    12.0167  12.9099  13.1341  13.2611  14.4878  16.2799  16.3915  16.4740
    16.8709  16.8816

          k = 0.3795-0.5806 0.0000 (  4672 PWs)   bands (ev):

   -18.2386 -18.0974  -6.2951  -5.2853  -4.9578  -4.5455  -2.2341  -1.7366
    -1.5370  -1.3849  -0.9292  -0.7945   6.3258   7.3846   8.0277   8.2172
     8.7641   9.5838   9.6321   9.8096   9.8168  10.2665  10.9101  11.0507
    12.6010  12.6645  12.7330  13.4891  14.8488  15.9677  16.2558  16.4938
    16.6493  16.6798

     the Fermi energy is    13.7883 ev

!    total energy              =    -484.61221596 Ry
     Harris-Foulkes estimate   =    -484.61221596 Ry
     estimated scf accuracy    <          3.7E-11 Ry

     The total energy is the sum of the following terms:

     one-electron contribution =     -54.73938508 Ry
     hartree contribution      =      77.93159265 Ry
     xc contribution           =    -220.30393843 Ry
     ewald contribution        =    -287.49851281 Ry
     smearing contrib. (-TS)   =      -0.00197229 Ry

     convergence has been achieved in  14 iterations

     Forces acting on atoms (cartesian axes, Ry/au):

     atom    1 type  1   force =    -0.00002982   -0.00001193   -0.00000014
     atom    2 type  1   force =     0.00002982    0.00001193    0.00000014
     atom    3 type  3   force =    -0.00123215   -0.00049178   -0.00000001
     atom    4 type  3   force =     0.00123215    0.00049178    0.00000001
     atom    5 type  2   force =     0.00000000    0.00000000    0.00000000
     atom    6 type  3   force =     0.00000000    0.00000000    0.00000000
     atom    7 type  3   force =     0.00000000    0.00000000    0.00000000

     Total force =     0.001877     Total SCF correction =     0.000003


     Computing stress (Cartesian axis) and pressure

          total   stress  (Ry/bohr**3)                   (kbar)     P=    1.00
   0.00000925   0.00000158   0.00000000          1.36      0.23      0.00
   0.00000158   0.00000593  -0.00000000          0.23      0.87     -0.00
   0.00000000  -0.00000000   0.00000531          0.00     -0.00      0.78


     Writing output data file La2NiO4.save
 
     init_run     :      4.17s CPU      4.29s WALL (       2 calls)
     electrons    :    388.81s CPU    404.25s WALL (       8 calls)
     update_pot   :      2.35s CPU      2.36s WALL (       6 calls)
     forces       :      2.93s CPU      2.99s WALL (       8 calls)
     stress       :      7.58s CPU      7.75s WALL (       8 calls)

     Called by init_run:
     wfcinit      :      2.73s CPU      2.81s WALL (       2 calls)
     potinit      :      0.26s CPU      0.26s WALL (       2 calls)

     Called by electrons:
     c_bands      :    336.64s CPU    349.12s WALL (     130 calls)
     sum_band     :     47.94s CPU     49.75s WALL (     130 calls)
     v_of_rho     :      0.23s CPU      0.23s WALL (     137 calls)
     newd         :      4.00s CPU      4.80s WALL (     137 calls)
     mix_rho      :      0.17s CPU      0.17s WALL (     130 calls)

     Called by c_bands:
     init_us_2    :      2.21s CPU      2.26s WALL (    8896 calls)
     cegterg      :    325.62s CPU    337.93s WALL (    4160 calls)

     Called by sum_band:
     sum_band:bec :      0.22s CPU      0.23s WALL (    4160 calls)
     addusdens    :      3.87s CPU      4.82s WALL (     130 calls)

     Called by *egterg:
     h_psi        :    228.87s CPU    233.58s WALL (   21611 calls)
     s_psi        :      3.75s CPU      3.81s WALL (   21611 calls)
     g_psi        :      0.51s CPU      0.52s WALL (   17387 calls)
     cdiaghg      :     65.84s CPU     69.46s WALL (   21323 calls)

     Called by h_psi:
     h_psi:pot    :    228.42s CPU    233.12s WALL (   21611 calls)
     h_psi:calbec :      5.69s CPU      5.81s WALL (   21611 calls)
     vloc_psi     :    218.32s CPU    222.81s WALL (   21611 calls)
     add_vuspsi   :      4.30s CPU      4.40s WALL (   21611 calls)

     General routines
     calbec       :      7.72s CPU      7.88s WALL (   27051 calls)
     fft          :      0.60s CPU      0.61s WALL (     887 calls)
     fftw         :    234.27s CPU    239.24s WALL (  930366 calls)
 
     Parallel routines
     fft_scatt_xy :     24.94s CPU     25.44s WALL (  931253 calls)
     fft_scatt_yz :     50.59s CPU     51.64s WALL (  931253 calls)
 
     PWSCF        :  6m48.85s CPU     7m 6.42s WALL

 
   This run was terminated on:  10:31:53   1Jul2019            

=------------------------------------------------------------------------------=
   JOB DONE.
=------------------------------------------------------------------------------=
