
     Program PWSCF v.6.2 (svn rev. 14038) starts on  1Jul2019 at 10:32:29 

     This program is part of the open-source Quantum ESPRESSO suite
     for quantum simulation of materials; please cite
         "P. Giannozzi et al., J. Phys.:Condens. Matter 21 395502 (2009);
         "P. Giannozzi et al., J. Phys.:Condens. Matter 29 465901 (2017);
          URL http://www.quantum-espresso.org", 
     in publications or presentations arising from this work. More details at
     http://www.quantum-espresso.org/quote

     Parallel version (MPI & OpenMP), running on      20 processor cores
     Number of MPI processes:                20
     Threads/MPI process:                     1

     MPI processes distributed on     1 nodes
     R & G space division:  proc/nbgrp/npool/nimage =      20
     Reading input from La2O3.in

     Current dimensions of program PWSCF are:
     Max number of different atomic species (ntypx) = 10
     Max number of k-points (npk) =  40000
     Max angular momentum in pseudopotentials (lmaxx) =  3
               file La.pz-spfn-rrkjus_psl.1.0.0.UPF: wavefunction(s)  4F renormalized

     Subspace diagonalization in iterative solution of the eigenvalue problem:
     one sub-group per band group will be used
     scalapack distributed-memory algorithm (size of sub-group:  3*  3 procs)

 
     Parallelization info
     --------------------
     sticks:   dense  smooth     PW     G-vecs:    dense   smooth      PW
     Min          42      42     12                 2912     2912     462
     Max          43      43     13                 2929     2929     475
     Sum         847     847    253                58381    58381    9391
 


     bravais-lattice index     =            4
     lattice parameter (alat)  =       7.1904  a.u.
     unit-cell volume          =     929.3119 (a.u.)^3
     number of atoms/cell      =            5
     number of atomic types    =            2
     number of electrons       =        40.00
     number of Kohn-Sham states=           24
     kinetic-energy cutoff     =      60.0000  Ry
     charge density cutoff     =     240.0000  Ry
     convergence threshold     =      1.0E-08
     mixing beta               =       0.7000
     number of iterations used =            8  plain     mixing
     Exchange-correlation      = LDA ( 1  1  0  0 0 0)
     nstep                     =          300


     celldm(1)=   7.190408  celldm(2)=   0.000000  celldm(3)=   2.886491
     celldm(4)=   0.000000  celldm(5)=   0.000000  celldm(6)=   0.000000

     crystal axes: (cart. coord. in units of alat)
               a(1) = (   1.000000   0.000000   0.000000 )  
               a(2) = (  -0.500000   0.866025   0.000000 )  
               a(3) = (   0.000000   0.000000   2.886491 )  

     reciprocal axes: (cart. coord. in units 2 pi/alat)
               b(1) = (  1.000000  0.577350  0.000000 )  
               b(2) = (  0.000000  1.154701  0.000000 )  
               b(3) = (  0.000000  0.000000  0.346441 )  


     PseudoPot. # 1 for La read from file:
     ./La.pz-spfn-rrkjus_psl.1.0.0.UPF
     MD5 check sum: e4cc26dd351bb2aa33b11ee919d4576a
     Pseudo is Ultrasoft + core correction, Zval = 11.0
     Generated using "atomic" code by A. Dal Corso v.6.2.2
     Using radial grid of 1253 points,  8 beta functions with: 
                l(1) =   0
                l(2) =   0
                l(3) =   1
                l(4) =   1
                l(5) =   2
                l(6) =   2
                l(7) =   3
                l(8) =   3
     Q(r) pseudized with 0 coefficients 


     PseudoPot. # 2 for O  read from file:
     ./O.pz-n-rrkjus_psl.0.1.UPF
     MD5 check sum: 6e384d5705d3ad042f52b90450e69d34
     Pseudo is Ultrasoft + core correction, Zval =  6.0
     Generated using "atomic" code by A. Dal Corso v.5.0.2 svn rev. 9415
     Using radial grid of 1095 points,  4 beta functions with: 
                l(1) =   0
                l(2) =   0
                l(3) =   1
                l(4) =   1
     Q(r) pseudized with 0 coefficients 


     atomic species   valence    mass     pseudopotential
        La            11.00   138.90550     La( 1.00)
        O              6.00    15.99940     O ( 1.00)

      4 Sym. Ops., with inversion, found



   Cartesian axes

     site n.     atom                  positions (alat units)
         1           La  tau(   1) = (  -0.0000050   0.5773532   1.8850232  )
         2           La  tau(   2) = (   0.5000050   0.2886722   1.0014682  )
         3           O   tau(   3) = (  -0.0000050   0.5773532   0.8049559  )
         4           O   tau(   4) = (   0.5000050   0.2886722   2.0815356  )
         5           O   tau(   5) = (   0.0000000   0.0000000   1.4432457  )

     number of k points=    52  gaussian smearing, width (Ry)=  0.0100
                       cart. coord. in units 2pi/alat
        k(    1) = (   0.1250000   0.2165064   0.0433052), wk =   0.0416667
        k(    2) = (   0.1250000   0.2165064   0.1299155), wk =   0.0416667
        k(    3) = (   0.1250000   0.5051815   0.0433052), wk =   0.0416667
        k(    4) = (   0.1250000   0.5051815   0.1299155), wk =   0.0416667
        k(    5) = (   0.1250000  -0.3608439   0.0433052), wk =   0.0416667
        k(    6) = (   0.1250000  -0.3608439   0.1299155), wk =   0.0416667
        k(    7) = (   0.1250000  -0.0721688   0.0433052), wk =   0.0208333
        k(    8) = (   0.1250000  -0.0721688   0.1299155), wk =   0.0208333
        k(    9) = (   0.3750000   0.6495191   0.0433052), wk =   0.0416667
        k(   10) = (   0.3750000   0.6495191   0.1299155), wk =   0.0416667
        k(   11) = (   0.3750000  -0.2165064   0.0433052), wk =   0.0208333
        k(   12) = (   0.3750000  -0.2165064   0.1299155), wk =   0.0208333
        k(   13) = (  -0.1250000   0.2165064   0.0433052), wk =   0.0416667
        k(   14) = (   0.2500000   0.0000000   0.0433052), wk =   0.0416667
        k(   15) = (  -0.1250000   0.2165064   0.1299155), wk =   0.0416667
        k(   16) = (   0.2500000   0.0000000   0.1299155), wk =   0.0416667
        k(   17) = (  -0.3750000   0.3608439   0.0433052), wk =   0.0416667
        k(   18) = (   0.5000000   0.1443376   0.0433052), wk =   0.0416667
        k(   19) = (  -0.5000000  -0.1443376   0.0433052), wk =   0.0416667
        k(   20) = (   0.3750000  -0.3608439   0.0433052), wk =   0.0416667
        k(   21) = (  -0.3750000  -0.3608439  -0.0433052), wk =   0.0416667
        k(   22) = (  -0.3750000   0.3608439   0.1299155), wk =   0.0416667
        k(   23) = (   0.5000000   0.1443376   0.1299155), wk =   0.0416667
        k(   24) = (  -0.5000000  -0.1443376   0.1299155), wk =   0.0416667
        k(   25) = (   0.3750000  -0.3608439   0.1299155), wk =   0.0416667
        k(   26) = (  -0.3750000  -0.3608439  -0.1299155), wk =   0.0416667
        k(   27) = (   0.3750000  -0.0721688   0.0433052), wk =   0.0416667
        k(   28) = (  -0.2500000  -0.2886751   0.0433052), wk =   0.0416667
        k(   29) = (   0.2500000   0.2886751   0.0433052), wk =   0.0416667
        k(   30) = (  -0.3750000   0.0721688   0.0433052), wk =   0.0416667
        k(   31) = (   0.3750000   0.0721688  -0.0433052), wk =   0.0416667
        k(   32) = (   0.3750000  -0.0721688   0.1299155), wk =   0.0416667
        k(   33) = (  -0.2500000  -0.2886751   0.1299155), wk =   0.0416667
        k(   34) = (   0.2500000   0.2886751   0.1299155), wk =   0.0416667
        k(   35) = (  -0.3750000   0.0721688   0.1299155), wk =   0.0416667
        k(   36) = (   0.3750000   0.0721688  -0.1299155), wk =   0.0416667
        k(   37) = (   0.1250000   0.0721688   0.0433052), wk =   0.0416667
        k(   38) = (   0.0000000   0.1443376   0.0433052), wk =   0.0416667
        k(   39) = (   0.1250000  -0.0721688  -0.0433052), wk =   0.0208333
        k(   40) = (   0.1250000   0.0721688   0.1299155), wk =   0.0416667
        k(   41) = (   0.0000000   0.1443376   0.1299155), wk =   0.0416667
        k(   42) = (   0.1250000  -0.0721688  -0.1299155), wk =   0.0208333
        k(   43) = (  -0.3750000   0.6495191   0.0433052), wk =   0.0416667
        k(   44) = (   0.7500000   0.0000000   0.0433052), wk =   0.0416667
        k(   45) = (  -0.3750000   0.6495191   0.1299155), wk =   0.0416667
        k(   46) = (   0.7500000   0.0000000   0.1299155), wk =   0.0416667
        k(   47) = (   0.3750000   0.2165064   0.0433052), wk =   0.0416667
        k(   48) = (   0.0000000   0.4330127   0.0433052), wk =   0.0416667
        k(   49) = (   0.3750000  -0.2165064  -0.0433052), wk =   0.0208333
        k(   50) = (   0.3750000   0.2165064   0.1299155), wk =   0.0416667
        k(   51) = (   0.0000000   0.4330127   0.1299155), wk =   0.0416667
        k(   52) = (   0.3750000  -0.2165064  -0.1299155), wk =   0.0208333

     Dense  grid:    58381 G-vectors     FFT dimensions: (  36,  36, 108)

     Estimated max dynamical RAM per process >      48.39 MB

     Estimated total dynamical RAM >     967.77 MB

     Check: negative/imaginary core charge=   -0.000297    0.000000

     Initial potential from superposition of free atoms

     starting charge   39.94696, renormalised to   40.00000
     Starting wfc are   52 randomized atomic wfcs

     total cpu time spent up to now is        3.3 secs

     Self-consistent Calculation

     iteration #  1     ecut=    60.00 Ry     beta= 0.70
     Davidson diagonalization with overlap
     ethr =  1.00E-02,  avg # of iterations =  2.0

     total cpu time spent up to now is        4.8 secs

     total energy              =    -349.77777285 Ry
     Harris-Foulkes estimate   =    -351.31284360 Ry
     estimated scf accuracy    <       1.94918548 Ry

     iteration #  2     ecut=    60.00 Ry     beta= 0.70
     Davidson diagonalization with overlap
     ethr =  4.87E-03,  avg # of iterations =  7.2

     total cpu time spent up to now is        8.4 secs

     total energy              =    -348.60058503 Ry
     Harris-Foulkes estimate   =    -352.34270653 Ry
     estimated scf accuracy    <      11.43506228 Ry

     iteration #  3     ecut=    60.00 Ry     beta= 0.70
     Davidson diagonalization with overlap
     ethr =  4.87E-03,  avg # of iterations =  4.1

     total cpu time spent up to now is       11.1 secs

     total energy              =    -350.79115696 Ry
     Harris-Foulkes estimate   =    -350.86779952 Ry
     estimated scf accuracy    <       0.22574528 Ry

     iteration #  4     ecut=    60.00 Ry     beta= 0.70
     Davidson diagonalization with overlap
     ethr =  5.64E-04,  avg # of iterations =  3.2

     total cpu time spent up to now is       13.0 secs

     total energy              =    -350.78677005 Ry
     Harris-Foulkes estimate   =    -350.81021243 Ry
     estimated scf accuracy    <       0.07521020 Ry

     iteration #  5     ecut=    60.00 Ry     beta= 0.70
     Davidson diagonalization with overlap
     ethr =  1.88E-04,  avg # of iterations =  6.8

     negative rho (up, down):  1.620E-06 0.000E+00

     total cpu time spent up to now is       15.9 secs

     total energy              =    -350.78713889 Ry
     Harris-Foulkes estimate   =    -350.79618290 Ry
     estimated scf accuracy    <       0.01980289 Ry

     iteration #  6     ecut=    60.00 Ry     beta= 0.70
     Davidson diagonalization with overlap
     ethr =  4.95E-05,  avg # of iterations =  8.7

     negative rho (up, down):  5.065E-06 0.000E+00

     total cpu time spent up to now is       19.6 secs

     total energy              =    -350.79095468 Ry
     Harris-Foulkes estimate   =    -350.79403232 Ry
     estimated scf accuracy    <       0.00897721 Ry

     iteration #  7     ecut=    60.00 Ry     beta= 0.70
     Davidson diagonalization with overlap
     ethr =  2.24E-05,  avg # of iterations =  5.2

     negative rho (up, down):  6.615E-06 0.000E+00

     total cpu time spent up to now is       22.0 secs

     total energy              =    -350.79249380 Ry
     Harris-Foulkes estimate   =    -350.79265427 Ry
     estimated scf accuracy    <       0.00033665 Ry

     iteration #  8     ecut=    60.00 Ry     beta= 0.70
     Davidson diagonalization with overlap
     c_bands:  1 eigenvalues not converged
     c_bands:  1 eigenvalues not converged
     c_bands:  1 eigenvalues not converged
     c_bands:  1 eigenvalues not converged
     c_bands:  1 eigenvalues not converged
     c_bands:  1 eigenvalues not converged
     c_bands:  1 eigenvalues not converged
     c_bands:  1 eigenvalues not converged
     c_bands:  1 eigenvalues not converged
     c_bands:  1 eigenvalues not converged
     c_bands:  1 eigenvalues not converged
     c_bands:  1 eigenvalues not converged
     c_bands:  1 eigenvalues not converged
     c_bands:  1 eigenvalues not converged
     c_bands:  1 eigenvalues not converged
     c_bands:  1 eigenvalues not converged
     c_bands:  1 eigenvalues not converged
     c_bands:  1 eigenvalues not converged
     c_bands:  1 eigenvalues not converged
     c_bands:  1 eigenvalues not converged
     c_bands:  1 eigenvalues not converged
     ethr =  8.42E-07,  avg # of iterations = 14.6

     negative rho (up, down):  6.322E-06 0.000E+00

     total cpu time spent up to now is       26.7 secs

     total energy              =    -350.79267326 Ry
     Harris-Foulkes estimate   =    -350.79268753 Ry
     estimated scf accuracy    <       0.00003948 Ry

     iteration #  9     ecut=    60.00 Ry     beta= 0.70
     Davidson diagonalization with overlap
     c_bands:  1 eigenvalues not converged
     c_bands:  1 eigenvalues not converged
     c_bands:  1 eigenvalues not converged
     c_bands:  1 eigenvalues not converged
     c_bands:  1 eigenvalues not converged
     c_bands:  1 eigenvalues not converged
     c_bands:  1 eigenvalues not converged
     c_bands:  1 eigenvalues not converged
     c_bands:  1 eigenvalues not converged
     c_bands:  1 eigenvalues not converged
     c_bands:  1 eigenvalues not converged
     c_bands:  1 eigenvalues not converged
     c_bands:  1 eigenvalues not converged
     c_bands:  1 eigenvalues not converged
     c_bands:  1 eigenvalues not converged
     ethr =  9.87E-08,  avg # of iterations =  8.3

     negative rho (up, down):  6.297E-06 0.000E+00

     total cpu time spent up to now is       29.6 secs

     total energy              =    -350.79267348 Ry
     Harris-Foulkes estimate   =    -350.79267747 Ry
     estimated scf accuracy    <       0.00000919 Ry

     iteration # 10     ecut=    60.00 Ry     beta= 0.70
     Davidson diagonalization with overlap
     c_bands:  1 eigenvalues not converged
     c_bands:  1 eigenvalues not converged
     c_bands:  1 eigenvalues not converged
     ethr =  2.30E-08,  avg # of iterations =  6.1

     negative rho (up, down):  6.222E-06 0.000E+00

     total cpu time spent up to now is       32.4 secs

     total energy              =    -350.79267599 Ry
     Harris-Foulkes estimate   =    -350.79267618 Ry
     estimated scf accuracy    <       0.00000053 Ry

     iteration # 11     ecut=    60.00 Ry     beta= 0.70
     Davidson diagonalization with overlap
     ethr =  1.32E-09,  avg # of iterations =  5.4

     negative rho (up, down):  6.241E-06 0.000E+00

     total cpu time spent up to now is       35.4 secs

     total energy              =    -350.79267623 Ry
     Harris-Foulkes estimate   =    -350.79267626 Ry
     estimated scf accuracy    <       0.00000005 Ry

     iteration # 12     ecut=    60.00 Ry     beta= 0.70
     Davidson diagonalization with overlap
     ethr =  1.31E-10,  avg # of iterations =  3.0

     negative rho (up, down):  6.244E-06 0.000E+00

     total cpu time spent up to now is       37.6 secs

     End of self-consistent calculation

          k = 0.1250 0.2165 0.0433 (  7276 PWs)   bands (ev):

   -26.7330 -26.6903 -13.0282 -13.0032 -12.3736 -10.3411 -10.2774 -10.1858
    -9.7243  -8.9685  -8.9441   0.8726   1.3543   1.3614   1.6347   1.7792
     1.8694   2.4525   2.6116   2.7403   7.0625   7.6413   7.8379   8.0757

          k = 0.1250 0.2165 0.1299 (  7266 PWs)   bands (ev):

   -26.7330 -26.6903 -13.0283 -13.0032 -12.3736 -10.3412 -10.2774 -10.1858
    -9.7243  -8.9685  -8.9440   0.8726   1.3543   1.3609   1.6355   1.7845
     1.8592   2.4600   2.6116   2.7392   7.0871   7.6229   7.9009   8.0978

          k = 0.1250 0.5052 0.0433 (  7301 PWs)   bands (ev):

   -26.6117 -26.5955 -13.8098 -13.7058 -12.0427 -10.5919 -10.4916 -10.3790
   -10.1237  -8.5544  -8.3701   1.0095   1.4230   1.7631   1.9592   2.2978
     2.4359   2.5728   2.7607   2.9074   7.1207   7.8570   7.9432   8.0535

          k = 0.1250 0.5052 0.1299 (  7299 PWs)   bands (ev):

   -26.6117 -26.5955 -13.8098 -13.7058 -12.0427 -10.5919 -10.4916 -10.3790
   -10.1237  -8.5544  -8.3701   1.0087   1.4236   1.7632   1.9593   2.2968
     2.4356   2.5740   2.7619   2.9066   7.1222   7.8556   7.9423   8.0656

          k = 0.1250-0.3608 0.0433 (  7299 PWs)   bands (ev):

   -26.6640 -26.6338 -13.4896 -13.4347 -12.2264 -10.5143 -10.3919 -10.3101
    -9.9124  -8.7041  -8.5731   1.0783   1.3123   1.6870   1.9061   1.9419
     2.0715   2.5405   2.6517   2.8187   7.0897   7.7067   8.0252   8.1126

          k = 0.1250-0.3608 0.1299 (  7287 PWs)   bands (ev):

   -26.6640 -26.6338 -13.4896 -13.4347 -12.2264 -10.5143 -10.3919 -10.3101
    -9.9124  -8.7041  -8.5731   1.0787   1.3113   1.6871   1.9047   1.9435
     2.0694   2.5430   2.6533   2.8185   7.0961   7.7054   8.0014   8.1393

          k = 0.1250-0.0722 0.0433 (  7263 PWs)   bands (ev):

   -26.7800 -26.7303 -12.8375 -12.6879 -12.1719 -10.2592 -10.1188 -10.0691
    -9.7752  -9.2604  -9.1743   0.9156   1.0550   1.0769   1.4231   1.6908
     1.8603   2.5014   2.6210   2.7262   7.0588   7.4389   7.7149   7.9995

          k = 0.1250-0.0722 0.1299 (  7280 PWs)   bands (ev):

   -26.7800 -26.7303 -12.8374 -12.6879 -12.1719 -10.2592 -10.1188 -10.0691
    -9.7752  -9.2604  -9.1743   0.9152   1.0550   1.0768   1.4232   1.6826
     1.8716   2.5011   2.6188   2.7261   7.1221   7.5569   7.7116   7.9785

          k = 0.3750 0.6495 0.0433 (  7312 PWs)   bands (ev):

   -26.5881 -26.5814 -13.7987 -13.7685 -12.3178 -10.7921 -10.4697 -10.3919
   -10.0182  -8.3522  -8.3391   1.3172   1.7374   1.7938   1.8961   2.3025
     2.3424   2.5124   2.7105   2.9307   7.3516   7.7702   7.8100   7.9013

          k = 0.3750 0.6495 0.1299 (  7304 PWs)   bands (ev):

   -26.5881 -26.5814 -13.7987 -13.7685 -12.3178 -10.7921 -10.4697 -10.3919
   -10.0182  -8.3522  -8.3391   1.3165   1.7370   1.7930   1.8971   2.3027
     2.3441   2.5123   2.7102   2.9301   7.3539   7.7619   7.8170   7.9051

          k = 0.3750-0.2165 0.0433 (  7293 PWs)   bands (ev):

   -26.6426 -26.6177 -13.6934 -13.5681 -12.0040 -10.3785 -10.3418 -10.3373
   -10.2831  -8.7255  -8.4540   1.0034   1.1775   1.6213   2.0713   2.1696
     2.4126   2.5250   2.7159   2.8073   6.9991   7.8722   8.0307   8.1500

          k = 0.3750-0.2165 0.1299 (  7307 PWs)   bands (ev):

   -26.6426 -26.6177 -13.6934 -13.5681 -12.0040 -10.3785 -10.3418 -10.3373
   -10.2831  -8.7255  -8.4540   1.0025   1.1781   1.6214   2.0694   2.1695
     2.4130   2.5285   2.7151   2.8073   7.0022   7.8705   8.0201   8.1677

          k =-0.1250 0.2165 0.0433 (  7276 PWs)   bands (ev):

   -26.7330 -26.6903 -13.0282 -13.0032 -12.3736 -10.3411 -10.2775 -10.1858
    -9.7243  -8.9685  -8.9441   0.8726   1.3542   1.3615   1.6348   1.7792
     1.8694   2.4525   2.6116   2.7403   7.0625   7.6413   7.8380   8.0766

          k = 0.2500 0.0000 0.0433 (  7276 PWs)   bands (ev):

   -26.7330 -26.6903 -13.0282 -13.0032 -12.3736 -10.3411 -10.2775 -10.1858
    -9.7243  -8.9685  -8.9441   0.8726   1.3542   1.3615   1.6348   1.7792
     1.8694   2.4525   2.6116   2.7403   7.0625   7.6413   7.8380   8.0757

          k =-0.1250 0.2165 0.1299 (  7266 PWs)   bands (ev):

   -26.7330 -26.6903 -13.0282 -13.0031 -12.3736 -10.3412 -10.2775 -10.1858
    -9.7243  -8.9685  -8.9441   0.8725   1.3542   1.3610   1.6356   1.7845
     1.8592   2.4600   2.6116   2.7392   7.0872   7.6229   7.9010   8.1034

          k = 0.2500 0.0000 0.1299 (  7266 PWs)   bands (ev):

   -26.7330 -26.6903 -13.0282 -13.0031 -12.3736 -10.3412 -10.2775 -10.1858
    -9.7243  -8.9685  -8.9441   0.8725   1.3542   1.3610   1.6356   1.7845
     1.8592   2.4600   2.6116   2.7392   7.0872   7.6229   7.9009   8.1036

          k =-0.3750 0.3608 0.0433 (  7301 PWs)   bands (ev):

   -26.6117 -26.5955 -13.8097 -13.7057 -12.0428 -10.5919 -10.4916 -10.3790
   -10.1238  -8.5544  -8.3702   1.0097   1.4222   1.7631   1.9592   2.2999
     2.4346   2.5725   2.7612   2.9071   7.1195   7.8634   7.9344   8.0595

          k = 0.5000 0.1443 0.0433 (  7301 PWs)   bands (ev):

   -26.6117 -26.5955 -13.8098 -13.7058 -12.0427 -10.5919 -10.4916 -10.3790
   -10.1237  -8.5544  -8.3701   1.0097   1.4222   1.7631   1.9592   2.2999
     2.4346   2.5725   2.7612   2.9071   7.1194   7.8635   7.9343   8.0596

          k =-0.5000-0.1443 0.0433 (  7301 PWs)   bands (ev):

   -26.6117 -26.5955 -13.8098 -13.7058 -12.0427 -10.5919 -10.4916 -10.3790
   -10.1237  -8.5544  -8.3701   1.0095   1.4231   1.7631   1.9591   2.2978
     2.4359   2.5728   2.7607   2.9074   7.1207   7.8571   7.9431   8.0535

          k = 0.3750-0.3608 0.0433 (  7301 PWs)   bands (ev):

   -26.6117 -26.5955 -13.8097 -13.7057 -12.0428 -10.5919 -10.4916 -10.3790
   -10.1238  -8.5544  -8.3702   1.0095   1.4230   1.7631   1.9592   2.2978
     2.4358   2.5728   2.7606   2.9074   7.1208   7.8571   7.9432   8.0535

          k =-0.3750-0.3608-0.0433 (  7301 PWs)   bands (ev):

   -26.6117 -26.5955 -13.8098 -13.7058 -12.0427 -10.5919 -10.4916 -10.3790
   -10.1237  -8.5544  -8.3701   1.0097   1.4222   1.7631   1.9592   2.2999
     2.4346   2.5725   2.7612   2.9071   7.1194   7.8633   7.9342   8.0595

          k =-0.3750 0.3608 0.1299 (  7299 PWs)   bands (ev):

   -26.6117 -26.5955 -13.8098 -13.7057 -12.0428 -10.5919 -10.4916 -10.3790
   -10.1238  -8.5544  -8.3702   1.0089   1.4228   1.7632   1.9593   2.2989
     2.4343   2.5737   2.7625   2.9063   7.1211   7.8615   7.9345   8.0708

          k = 0.5000 0.1443 0.1299 (  7299 PWs)   bands (ev):

   -26.6117 -26.5955 -13.8098 -13.7058 -12.0427 -10.5919 -10.4916 -10.3790
   -10.1237  -8.5544  -8.3701   1.0089   1.4228   1.7632   1.9593   2.2989
     2.4343   2.5737   2.7625   2.9063   7.1210   7.8616   7.9346   8.0709

          k =-0.5000-0.1443 0.1299 (  7299 PWs)   bands (ev):

   -26.6117 -26.5955 -13.8098 -13.7058 -12.0427 -10.5919 -10.4916 -10.3790
   -10.1237  -8.5544  -8.3701   1.0087   1.4236   1.7632   1.9593   2.2968
     2.4355   2.5740   2.7619   2.9066   7.1222   7.8557   7.9423   8.0652

          k = 0.3750-0.3608 0.1299 (  7299 PWs)   bands (ev):

   -26.6117 -26.5955 -13.8097 -13.7057 -12.0427 -10.5919 -10.4916 -10.3790
   -10.1238  -8.5544  -8.3702   1.0087   1.4236   1.7632   1.9593   2.2968
     2.4355   2.5740   2.7619   2.9066   7.1223   7.8557   7.9424   8.0656

          k =-0.3750-0.3608-0.1299 (  7299 PWs)   bands (ev):

   -26.6117 -26.5955 -13.8098 -13.7058 -12.0427 -10.5919 -10.4916 -10.3790
   -10.1237  -8.5544  -8.3701   1.0089   1.4228   1.7632   1.9593   2.2989
     2.4343   2.5737   2.7625   2.9063   7.1210   7.8615   7.9347   8.0711

          k = 0.3750-0.0722 0.0433 (  7299 PWs)   bands (ev):

   -26.6640 -26.6338 -13.4896 -13.4347 -12.2264 -10.5143 -10.3919 -10.3101
    -9.9124  -8.7041  -8.5732   1.0784   1.3121   1.6871   1.9042   1.9463
     2.0699   2.5384   2.6519   2.8195   7.0953   7.7045   8.0094   8.1130

          k =-0.2500-0.2887 0.0433 (  7299 PWs)   bands (ev):

   -26.6640 -26.6338 -13.4896 -13.4348 -12.2264 -10.5143 -10.3918 -10.3101
    -9.9124  -8.7041  -8.5731   1.0785   1.3121   1.6871   1.9042   1.9463
     2.0699   2.5385   2.6519   2.8195   7.0953   7.7045   8.0097   8.1131

          k = 0.2500 0.2887 0.0433 (  7299 PWs)   bands (ev):

   -26.6640 -26.6338 -13.4897 -13.4347 -12.2264 -10.5143 -10.3918 -10.3101
    -9.9124  -8.7041  -8.5731   1.0783   1.3123   1.6870   1.9061   1.9419
     2.0716   2.5405   2.6517   2.8187   7.0897   7.7066   8.0246   8.1124

          k =-0.3750 0.0722 0.0433 (  7299 PWs)   bands (ev):

   -26.6640 -26.6338 -13.4896 -13.4347 -12.2264 -10.5143 -10.3919 -10.3101
    -9.9124  -8.7041  -8.5732   1.0783   1.3124   1.6870   1.9061   1.9419
     2.0716   2.5405   2.6517   2.8187   7.0898   7.7067   8.0248   8.1124

          k = 0.3750 0.0722-0.0433 (  7299 PWs)   bands (ev):

   -26.6640 -26.6338 -13.4896 -13.4347 -12.2264 -10.5143 -10.3919 -10.3101
    -9.9124  -8.7041  -8.5731   1.0784   1.3121   1.6871   1.9042   1.9463
     2.0699   2.5385   2.6518   2.8195   7.0953   7.7045   8.0093   8.1130

          k = 0.3750-0.0722 0.1299 (  7287 PWs)   bands (ev):

   -26.6640 -26.6338 -13.4896 -13.4347 -12.2264 -10.5143 -10.3919 -10.3101
    -9.9124  -8.7041  -8.5732   1.0788   1.3111   1.6872   1.9029   1.9478
     2.0677   2.5410   2.6535   2.8193   7.1019   7.7033   7.9887   8.1427

          k =-0.2500-0.2887 0.1299 (  7287 PWs)   bands (ev):

   -26.6640 -26.6338 -13.4896 -13.4348 -12.2264 -10.5143 -10.3918 -10.3101
    -9.9124  -8.7041  -8.5731   1.0788   1.3110   1.6872   1.9029   1.9478
     2.0678   2.5410   2.6534   2.8193   7.1018   7.7033   7.9882   8.1401

          k = 0.2500 0.2887 0.1299 (  7287 PWs)   bands (ev):

   -26.6640 -26.6338 -13.4897 -13.4347 -12.2264 -10.5142 -10.3918 -10.3101
    -9.9124  -8.7041  -8.5731   1.0787   1.3113   1.6871   1.9046   1.9435
     2.0695   2.5430   2.6533   2.8184   7.0961   7.7053   8.0012   8.1385

          k =-0.3750 0.0722 0.1299 (  7287 PWs)   bands (ev):

   -26.6640 -26.6338 -13.4896 -13.4346 -12.2264 -10.5143 -10.3919 -10.3101
    -9.9124  -8.7041  -8.5732   1.0786   1.3113   1.6871   1.9047   1.9435
     2.0695   2.5430   2.6533   2.8184   7.0962   7.7053   8.0012   8.1372

          k = 0.3750 0.0722-0.1299 (  7287 PWs)   bands (ev):

   -26.6640 -26.6338 -13.4896 -13.4347 -12.2264 -10.5143 -10.3919 -10.3101
    -9.9124  -8.7041  -8.5731   1.0788   1.3110   1.6872   1.9030   1.9478
     2.0677   2.5410   2.6534   2.8193   7.1018   7.7033   7.9885   8.1452

          k = 0.1250 0.0722 0.0433 (  7263 PWs)   bands (ev):

   -26.7800 -26.7303 -12.8375 -12.6879 -12.1720 -10.2592 -10.1188 -10.0691
    -9.7752  -9.2604  -9.1743   0.9153   1.0550   1.0769   1.4231   1.6950
     1.8564   2.4969   2.6256   2.7261   7.0512   7.4572   7.7204   8.0000

          k = 0.0000 0.1443 0.0433 (  7263 PWs)   bands (ev):

   -26.7800 -26.7303 -12.8375 -12.6879 -12.1720 -10.2592 -10.1188 -10.0691
    -9.7752  -9.2604  -9.1743   0.9156   1.0550   1.0769   1.4231   1.6908
     1.8603   2.5014   2.6210   2.7261   7.0588   7.4389   7.7149   8.0004

          k = 0.1250-0.0722-0.0433 (  7263 PWs)   bands (ev):

   -26.7800 -26.7303 -12.8375 -12.6879 -12.1719 -10.2592 -10.1188 -10.0691
    -9.7752  -9.2604  -9.1743   0.9153   1.0550   1.0768   1.4231   1.6950
     1.8564   2.4969   2.6255   2.7262   7.0512   7.4572   7.7205   7.9995

          k = 0.1250 0.0722 0.1299 (  7280 PWs)   bands (ev):

   -26.7800 -26.7303 -12.8374 -12.6880 -12.1720 -10.2592 -10.1188 -10.0691
    -9.7752  -9.2604  -9.1743   0.9149   1.0550   1.0767   1.4231   1.6864
     1.8681   2.4966   2.6235   2.7261   7.1119   7.5868   7.7420   7.9254

          k = 0.0000 0.1443 0.1299 (  7280 PWs)   bands (ev):

   -26.7800 -26.7303 -12.8374 -12.6880 -12.1720 -10.2592 -10.1188 -10.0691
    -9.7752  -9.2604  -9.1743   0.9152   1.0549   1.0768   1.4231   1.6827
     1.8716   2.5011   2.6189   2.7261   7.1221   7.5570   7.7116   7.9795

          k = 0.1250-0.0722-0.1299 (  7280 PWs)   bands (ev):

   -26.7800 -26.7303 -12.8374 -12.6879 -12.1719 -10.2592 -10.1188 -10.0691
    -9.7752  -9.2604  -9.1743   0.9149   1.0550   1.0767   1.4231   1.6864
     1.8681   2.4965   2.6234   2.7262   7.1119   7.5868   7.7419   7.9254

          k =-0.3750 0.6495 0.0433 (  7312 PWs)   bands (ev):

   -26.5881 -26.5814 -13.7987 -13.7686 -12.3178 -10.7921 -10.4696 -10.3919
   -10.0182  -8.3521  -8.3391   1.3172   1.7374   1.7938   1.8962   2.3024
     2.3424   2.5124   2.7105   2.9306   7.3515   7.7701   7.8101   7.9012

          k = 0.7500 0.0000 0.0433 (  7312 PWs)   bands (ev):

   -26.5881 -26.5814 -13.7987 -13.7686 -12.3178 -10.7921 -10.4696 -10.3919
   -10.0182  -8.3521  -8.3391   1.3172   1.7374   1.7938   1.8962   2.3024
     2.3424   2.5124   2.7105   2.9306   7.3515   7.7702   7.8100   7.9012

          k =-0.3750 0.6495 0.1299 (  7304 PWs)   bands (ev):

   -26.5881 -26.5814 -13.7987 -13.7686 -12.3178 -10.7921 -10.4696 -10.3919
   -10.0182  -8.3521  -8.3391   1.3165   1.7370   1.7930   1.8972   2.3026
     2.3440   2.5124   2.7103   2.9301   7.3539   7.7619   7.8170   7.9051

          k = 0.7500 0.0000 0.1299 (  7304 PWs)   bands (ev):

   -26.5881 -26.5814 -13.7987 -13.7686 -12.3178 -10.7921 -10.4696 -10.3919
   -10.0182  -8.3521  -8.3391   1.3165   1.7370   1.7930   1.8972   2.3026
     2.3440   2.5124   2.7103   2.9301   7.3539   7.7619   7.8172   7.9051

          k = 0.3750 0.2165 0.0433 (  7293 PWs)   bands (ev):

   -26.6426 -26.6176 -13.6935 -13.5682 -12.0040 -10.3784 -10.3418 -10.3373
   -10.2830  -8.7254  -8.4539   1.0042   1.1762   1.6213   2.0705   2.1698
     2.4117   2.5297   2.7140   2.8071   6.9941   7.8757   8.0246   8.2008

          k = 0.0000 0.4330 0.0433 (  7293 PWs)   bands (ev):

   -26.6426 -26.6176 -13.6934 -13.5682 -12.0040 -10.3784 -10.3418 -10.3373
   -10.2830  -8.7254  -8.4539   1.0034   1.1775   1.6214   2.0713   2.1696
     2.4126   2.5250   2.7159   2.8072   6.9990   7.8722   8.0306   8.1501

          k = 0.3750-0.2165-0.0433 (  7293 PWs)   bands (ev):

   -26.6426 -26.6177 -13.6934 -13.5681 -12.0040 -10.3785 -10.3418 -10.3373
   -10.2831  -8.7255  -8.4540   1.0042   1.1762   1.6213   2.0705   2.1697
     2.4117   2.5296   2.7140   2.8072   6.9942   7.8757   8.0247   8.2013

          k = 0.3750 0.2165 0.1299 (  7307 PWs)   bands (ev):

   -26.6426 -26.6176 -13.6935 -13.5682 -12.0040 -10.3784 -10.3418 -10.3373
   -10.2831  -8.7254  -8.4539   1.0033   1.1768   1.6213   2.0686   2.1696
     2.4122   2.5332   2.7132   2.8071   6.9970   7.8741   8.0166   8.1208

          k = 0.0000 0.4330 0.1299 (  7307 PWs)   bands (ev):

   -26.6426 -26.6176 -13.6935 -13.5682 -12.0040 -10.3784 -10.3418 -10.3373
   -10.2831  -8.7254  -8.4539   1.0025   1.1781   1.6214   2.0694   2.1695
     2.4130   2.5286   2.7151   2.8072   7.0021   7.8704   8.0201   8.1678

          k = 0.3750-0.2165-0.1299 (  7307 PWs)   bands (ev):

   -26.6426 -26.6177 -13.6934 -13.5681 -12.0040 -10.3785 -10.3418 -10.3373
   -10.2831  -8.7255  -8.4540   1.0033   1.1768   1.6213   2.0686   2.1696
     2.4122   2.5332   2.7131   2.8072   6.9971   7.8742   8.0166   8.2144

     the Fermi energy is     4.0442 ev

!    total energy              =    -350.79267624 Ry
     Harris-Foulkes estimate   =    -350.79267624 Ry
     estimated scf accuracy    <          8.1E-09 Ry

     The total energy is the sum of the following terms:

     one-electron contribution =    -286.79977505 Ry
     hartree contribution      =     161.12270463 Ry
     xc contribution           =    -170.03594916 Ry
     ewald contribution        =     -55.07965665 Ry
     smearing contrib. (-TS)   =      -0.00000000 Ry

     convergence has been achieved in  12 iterations

     negative rho (up, down):  6.244E-06 0.000E+00

     Forces acting on atoms (cartesian axes, Ry/au):

     atom    1 type  1   force =     0.00000685   -0.00000396   -0.01478169
     atom    2 type  1   force =    -0.00000685    0.00000396    0.01478169
     atom    3 type  2   force =     0.00000749   -0.00000432    0.02536765
     atom    4 type  2   force =    -0.00000749    0.00000432   -0.02536765
     atom    5 type  2   force =     0.00000000    0.00000000    0.00000000

     Total force =     0.041521     Total SCF correction =     0.000085


     Computing stress (Cartesian axis) and pressure


     negative rho (up, down):  6.244E-06 0.000E+00
          total   stress  (Ry/bohr**3)                   (kbar)     P=  -54.89
  -0.00039444   0.00000003  -0.00000003        -58.02      0.00     -0.00
   0.00000003  -0.00039440   0.00000001          0.00    -58.02      0.00
  -0.00000003   0.00000001  -0.00033057         -0.00      0.00    -48.63


     BFGS Geometry Optimization

     number of scf cycles    =   1
     number of bfgs steps    =   0

     enthalpy new            =    -350.7926762360 Ry

     new trust radius        =       0.0601212049 bohr
     new conv_thr            =       0.0000000100 Ry

     new unit-cell volume =    903.54580 a.u.^3 (   133.89167 Ang^3 )
     density =      4.04072 g/cm^3

CELL_PARAMETERS (alat=  7.19040794)
   0.990139091   0.000000679  -0.000000643
  -0.495068958   0.857485946   0.000000643
  -0.000001857   0.000001072   2.862636430

ATOMIC_POSITIONS (crystal)
La       0.333330635   0.666669365   0.652337803
La       0.666669365   0.333330635   0.347662197
O        0.333330694   0.666669306   0.280092240
O        0.666669306   0.333330694   0.719907760
O       -0.000000000   0.000000000   0.500000000



     Writing output data file La2O3.save
     NEW-OLD atomic charge density approx. for the potential

     Check: negative/imaginary core charge=   -0.000271    0.000000

     negative rho (up, down):  3.161E-06 0.000E+00
     extrapolated charge   38.86085, renormalised to   40.00000

     total cpu time spent up to now is       39.7 secs

     Self-consistent Calculation

     iteration #  1     ecut=    60.00 Ry     beta= 0.70
     Davidson diagonalization with overlap
     c_bands:  2 eigenvalues not converged
     c_bands:  1 eigenvalues not converged
     c_bands:  2 eigenvalues not converged
     c_bands:  2 eigenvalues not converged
     c_bands:  2 eigenvalues not converged
     c_bands:  1 eigenvalues not converged
     c_bands:  1 eigenvalues not converged
     c_bands:  2 eigenvalues not converged
     c_bands:  2 eigenvalues not converged
     c_bands:  2 eigenvalues not converged
     c_bands:  1 eigenvalues not converged
     c_bands:  1 eigenvalues not converged
     c_bands:  2 eigenvalues not converged
     c_bands:  2 eigenvalues not converged
     c_bands:  1 eigenvalues not converged
     c_bands:  1 eigenvalues not converged
     c_bands:  2 eigenvalues not converged
     c_bands:  2 eigenvalues not converged
     c_bands:  2 eigenvalues not converged
     c_bands:  2 eigenvalues not converged
     c_bands:  2 eigenvalues not converged
     c_bands:  2 eigenvalues not converged
     c_bands:  2 eigenvalues not converged
     c_bands:  2 eigenvalues not converged
     c_bands:  2 eigenvalues not converged
     c_bands:  2 eigenvalues not converged
     c_bands:  2 eigenvalues not converged
     c_bands:  2 eigenvalues not converged
     c_bands:  2 eigenvalues not converged
     c_bands:  2 eigenvalues not converged
     c_bands:  2 eigenvalues not converged
     c_bands:  2 eigenvalues not converged
     c_bands:  2 eigenvalues not converged
     c_bands:  1 eigenvalues not converged
     c_bands:  1 eigenvalues not converged
     c_bands:  2 eigenvalues not converged
     c_bands:  1 eigenvalues not converged
     c_bands:  1 eigenvalues not converged
     c_bands:  1 eigenvalues not converged
     c_bands:  2 eigenvalues not converged
     c_bands:  2 eigenvalues not converged
     c_bands:  2 eigenvalues not converged
     c_bands:  2 eigenvalues not converged
     c_bands:  2 eigenvalues not converged
     c_bands:  2 eigenvalues not converged
     c_bands:  1 eigenvalues not converged
     c_bands:  2 eigenvalues not converged
     c_bands:  1 eigenvalues not converged
     c_bands:  1 eigenvalues not converged
     c_bands:  1 eigenvalues not converged
     c_bands:  1 eigenvalues not converged
     ethr =  1.00E-06,  avg # of iterations = 20.0

     negative rho (up, down):  8.930E-05 0.000E+00

     total cpu time spent up to now is       48.0 secs

     total energy              =    -350.40267196 Ry
     Harris-Foulkes estimate   =    -358.56506605 Ry
     estimated scf accuracy    <       0.32008401 Ry

     iteration #  2     ecut=    60.00 Ry     beta= 0.70
     Davidson diagonalization with overlap
     ethr =  8.00E-04,  avg # of iterations =  7.7

     total cpu time spent up to now is       51.5 secs

     total energy              =    -349.68204849 Ry
     Harris-Foulkes estimate   =    -351.64786179 Ry
     estimated scf accuracy    <      11.64164530 Ry

     iteration #  3     ecut=    60.00 Ry     beta= 0.70
     Davidson diagonalization with overlap
     ethr =  8.00E-04,  avg # of iterations =  6.3

     total cpu time spent up to now is       54.9 secs

     total energy              =    -350.80036600 Ry
     Harris-Foulkes estimate   =    -350.84184450 Ry
     estimated scf accuracy    <       0.16134923 Ry

     iteration #  4     ecut=    60.00 Ry     beta= 0.70
     Davidson diagonalization with overlap
     ethr =  4.03E-04,  avg # of iterations =  2.0

     total cpu time spent up to now is       56.6 secs

     total energy              =    -350.80843723 Ry
     Harris-Foulkes estimate   =    -350.81416966 Ry
     estimated scf accuracy    <       0.05276831 Ry

     iteration #  5     ecut=    60.00 Ry     beta= 0.70
     Davidson diagonalization with overlap
     ethr =  1.32E-04,  avg # of iterations =  1.7

     total cpu time spent up to now is       58.1 secs

     total energy              =    -350.80436820 Ry
     Harris-Foulkes estimate   =    -350.80988732 Ry
     estimated scf accuracy    <       0.03648774 Ry

     iteration #  6     ecut=    60.00 Ry     beta= 0.70
     Davidson diagonalization with overlap
     ethr =  9.12E-05,  avg # of iterations =  4.5

     negative rho (up, down):  2.619E-04 0.000E+00

     total cpu time spent up to now is       60.2 secs

     total energy              =    -350.80246541 Ry
     Harris-Foulkes estimate   =    -350.80531824 Ry
     estimated scf accuracy    <       0.01840917 Ry

     iteration #  7     ecut=    60.00 Ry     beta= 0.70
     Davidson diagonalization with overlap
     ethr =  4.60E-05,  avg # of iterations =  7.8

     negative rho (up, down):  1.068E-04 0.000E+00

     total cpu time spent up to now is       63.1 secs

     total energy              =    -350.80310240 Ry
     Harris-Foulkes estimate   =    -350.80337212 Ry
     estimated scf accuracy    <       0.00757877 Ry

     iteration #  8     ecut=    60.00 Ry     beta= 0.70
     Davidson diagonalization with overlap
     ethr =  1.89E-05,  avg # of iterations =  3.1

     negative rho (up, down):  1.485E-04 0.000E+00

     total cpu time spent up to now is       64.9 secs

     total energy              =    -350.80271498 Ry
     Harris-Foulkes estimate   =    -350.80326686 Ry
     estimated scf accuracy    <       0.00661182 Ry

     iteration #  9     ecut=    60.00 Ry     beta= 0.70
     Davidson diagonalization with overlap
     ethr =  1.65E-05,  avg # of iterations =  1.3

     negative rho (up, down):  5.741E-04 0.000E+00

     total cpu time spent up to now is       66.4 secs

     total energy              =    -350.80150517 Ry
     Harris-Foulkes estimate   =    -350.80282960 Ry
     estimated scf accuracy    <       0.00444452 Ry

     iteration # 10     ecut=    60.00 Ry     beta= 0.70
     Davidson diagonalization with overlap
     c_bands:  1 eigenvalues not converged
     c_bands:  1 eigenvalues not converged
     ethr =  1.11E-05,  avg # of iterations =  9.5

     negative rho (up, down):  5.532E-04 0.000E+00

     total cpu time spent up to now is       69.9 secs

     total energy              =    -350.80205863 Ry
     Harris-Foulkes estimate   =    -350.80208498 Ry
     estimated scf accuracy    <       0.00027169 Ry

     iteration # 11     ecut=    60.00 Ry     beta= 0.70
     Davidson diagonalization with overlap
     c_bands:  1 eigenvalues not converged
     c_bands:  1 eigenvalues not converged
     c_bands:  1 eigenvalues not converged
     c_bands:  1 eigenvalues not converged
     c_bands:  1 eigenvalues not converged
     c_bands:  1 eigenvalues not converged
     ethr =  6.79E-07,  avg # of iterations = 10.2

     negative rho (up, down):  4.160E-06 0.000E+00

     total cpu time spent up to now is       73.7 secs

     total energy              =    -350.80202640 Ry
     Harris-Foulkes estimate   =    -350.80211095 Ry
     estimated scf accuracy    <       0.00017211 Ry

     iteration # 12     ecut=    60.00 Ry     beta= 0.70
     Davidson diagonalization with overlap
     ethr =  4.30E-07,  avg # of iterations =  5.6

     negative rho (up, down):  4.011E-06 0.000E+00

     total cpu time spent up to now is       76.3 secs

     total energy              =    -350.80205507 Ry
     Harris-Foulkes estimate   =    -350.80206194 Ry
     estimated scf accuracy    <       0.00002653 Ry

     iteration # 13     ecut=    60.00 Ry     beta= 0.70
     Davidson diagonalization with overlap
     ethr =  6.63E-08,  avg # of iterations =  2.4

     negative rho (up, down):  3.427E-06 0.000E+00

     total cpu time spent up to now is       78.1 secs

     total energy              =    -350.80205422 Ry
     Harris-Foulkes estimate   =    -350.80205791 Ry
     estimated scf accuracy    <       0.00001021 Ry

     iteration # 14     ecut=    60.00 Ry     beta= 0.70
     Davidson diagonalization with overlap
     ethr =  2.55E-08,  avg # of iterations =  2.7

     negative rho (up, down):  3.015E-06 0.000E+00

     total cpu time spent up to now is       79.9 secs

     total energy              =    -350.80205474 Ry
     Harris-Foulkes estimate   =    -350.80205560 Ry
     estimated scf accuracy    <       0.00000342 Ry

     iteration # 15     ecut=    60.00 Ry     beta= 0.70
     Davidson diagonalization with overlap
     ethr =  8.56E-09,  avg # of iterations =  3.1

     negative rho (up, down):  3.095E-06 0.000E+00

     total cpu time spent up to now is       81.8 secs

     total energy              =    -350.80205501 Ry
     Harris-Foulkes estimate   =    -350.80205507 Ry
     estimated scf accuracy    <       0.00000178 Ry

     iteration # 16     ecut=    60.00 Ry     beta= 0.70
     Davidson diagonalization with overlap
     ethr =  4.46E-09,  avg # of iterations =  2.4

     negative rho (up, down):  3.079E-06 0.000E+00

     total cpu time spent up to now is       83.5 secs

     total energy              =    -350.80205498 Ry
     Harris-Foulkes estimate   =    -350.80205516 Ry
     estimated scf accuracy    <       0.00000134 Ry

     iteration # 17     ecut=    60.00 Ry     beta= 0.70
     Davidson diagonalization with overlap
     ethr =  3.35E-09,  avg # of iterations =  1.0

     negative rho (up, down):  3.096E-06 0.000E+00

     total cpu time spent up to now is       85.0 secs

     total energy              =    -350.80205442 Ry
     Harris-Foulkes estimate   =    -350.80205502 Ry
     estimated scf accuracy    <       0.00000095 Ry

     iteration # 18     ecut=    60.00 Ry     beta= 0.70
     Davidson diagonalization with overlap
     ethr =  2.38E-09,  avg # of iterations =  1.0

     negative rho (up, down):  3.106E-06 0.000E+00

     total cpu time spent up to now is       86.4 secs

     total energy              =    -350.80205329 Ry
     Harris-Foulkes estimate   =    -350.80205445 Ry
     estimated scf accuracy    <       0.00000057 Ry

     iteration # 19     ecut=    60.00 Ry     beta= 0.70
     Davidson diagonalization with overlap
     ethr =  1.42E-09,  avg # of iterations =  4.0

     negative rho (up, down):  3.107E-06 0.000E+00

     total cpu time spent up to now is       88.9 secs

     total energy              =    -350.80205345 Ry
     Harris-Foulkes estimate   =    -350.80205349 Ry
     estimated scf accuracy    <       0.00000011 Ry

     iteration # 20     ecut=    60.00 Ry     beta= 0.70
     Davidson diagonalization with overlap
     ethr =  2.69E-10,  avg # of iterations =  2.9

     negative rho (up, down):  3.084E-06 0.000E+00

     total cpu time spent up to now is       90.8 secs

     End of self-consistent calculation

          k = 0.1262 0.2187 0.0437 (  7276 PWs)   bands (ev):

   -26.3698 -26.3192 -12.8828 -12.8554 -12.2258  -9.9822  -9.9326  -9.8286
    -9.3542  -8.5598  -8.5312   1.0178   1.5203   1.5230   1.8208   1.9551
     2.0362   2.6511   2.8262   2.9532   7.3569   7.9833   8.1636   8.4573

          k = 0.1262 0.2187 0.1310 (  7266 PWs)   bands (ev):

   -26.3698 -26.3192 -12.8828 -12.8554 -12.2258  -9.9822  -9.9326  -9.8286
    -9.3542  -8.5598  -8.5312   1.0177   1.5203   1.5225   1.8215   1.9608
     2.0258   2.6585   2.8262   2.9523   7.3857   7.9570   8.2212   8.4691

          k = 0.1262 0.5102 0.0437 (  7301 PWs)   bands (ev):

   -26.2291 -26.2099 -13.7169 -13.6051 -11.8914 -10.2682 -10.1650 -10.0255
    -9.7725  -8.1396  -7.9408   1.1668   1.5812   1.9321   2.1453   2.5066
     2.6597   2.8074   3.0132   3.1675   7.4258   8.2086   8.3063   8.4244

          k = 0.1262 0.5102 0.1310 (  7299 PWs)   bands (ev):

   -26.2291 -26.2099 -13.7169 -13.6051 -11.8914 -10.2682 -10.1650 -10.0255
    -9.7725  -8.1396  -7.9408   1.1660   1.5817   1.9322   2.1454   2.5062
     2.6593   2.8083   3.0144   3.1668   7.4274   8.2061   8.3068   8.4406

          k = 0.1262-0.3644 0.0437 (  7299 PWs)   bands (ev):

   -26.2899 -26.2541 -13.3748 -13.3153 -12.0763 -10.1896 -10.0537  -9.9461
    -9.5554  -8.2928  -8.1459   1.2336   1.4768   1.8563   2.1052   2.1278
     2.2707   2.7459   2.8775   3.0645   7.3878   8.0557   8.3974   8.4808

          k = 0.1262-0.3644 0.1310 (  7287 PWs)   bands (ev):

   -26.2899 -26.2541 -13.3748 -13.3153 -12.0763 -10.1896 -10.0537  -9.9461
    -9.5554  -8.2928  -8.1459   1.2340   1.4757   1.8564   2.1033   2.1290
     2.2697   2.7485   2.8791   3.0642   7.3952   8.0544   8.3649   8.5279

          k = 0.1262-0.0729 0.0437 (  7263 PWs)   bands (ev):

   -26.4240 -26.3653 -12.6891 -12.5199 -12.0029  -9.8987  -9.7553  -9.6990
    -9.4003  -8.8621  -8.7727   1.0621   1.1937   1.2239   1.5943   1.8651
     2.0291   2.6944   2.8199   2.9358   7.3552   7.7674   8.0648   8.4567

          k = 0.1262-0.0729 0.1310 (  7280 PWs)   bands (ev):

   -26.4240 -26.3653 -12.6891 -12.5199 -12.0029  -9.8988  -9.7553  -9.6990
    -9.4003  -8.8621  -8.7727   1.0617   1.1936   1.2237   1.5943   1.8566
     2.0407   2.6938   2.8182   2.9358   7.4272   7.8642   8.0688   8.3358

          k = 0.3787 0.6560 0.0437 (  7312 PWs)   bands (ev):

   -26.2015 -26.1937 -13.7057 -13.6732 -12.1774 -10.4982 -10.1216 -10.0379
    -9.6808  -7.9244  -7.9050   1.4891   1.9059   1.9812   2.0831   2.5234
     2.5406   2.7288   2.9481   3.2250   7.6622   8.1070   8.1568   8.2591

          k = 0.3787 0.6560 0.1310 (  7304 PWs)   bands (ev):

   -26.2015 -26.1937 -13.7057 -13.6732 -12.1774 -10.4982 -10.1216 -10.0379
    -9.6808  -7.9244  -7.9050   1.4884   1.9055   1.9804   2.0840   2.5234
     2.5424   2.7287   2.9480   3.2244   7.6648   8.0973   8.1653   8.2644

          k = 0.3787-0.2187 0.0437 (  7293 PWs)   bands (ev):

   -26.2651 -26.2355 -13.5923 -13.4576 -11.8472 -10.0445 -10.0063  -9.9759
    -9.9362  -8.3232  -8.0252   1.1620   1.3317   1.7772   2.2662   2.3941
     2.6114   2.7448   2.9550   3.0578   7.2976   8.2324   8.4106   8.5037

          k = 0.3787-0.2187 0.1310 (  7307 PWs)   bands (ev):

   -26.2651 -26.2355 -13.5923 -13.4576 -11.8472 -10.0445 -10.0063  -9.9759
    -9.9362  -8.3232  -8.0252   1.1610   1.3323   1.7772   2.2640   2.3940
     2.6127   2.7484   2.9537   3.0578   7.3010   8.2294   8.3978   8.5326

          k =-0.1262 0.2187 0.0437 (  7276 PWs)   bands (ev):

   -26.3698 -26.3192 -12.8827 -12.8554 -12.2258  -9.9822  -9.9326  -9.8286
    -9.3542  -8.5599  -8.5312   1.0178   1.5202   1.5230   1.8208   1.9551
     2.0362   2.6511   2.8262   2.9532   7.3569   7.9834   8.1636   8.4579

          k = 0.2525-0.0000 0.0437 (  7276 PWs)   bands (ev):

   -26.3698 -26.3192 -12.8827 -12.8554 -12.2258  -9.9822  -9.9326  -9.8286
    -9.3542  -8.5599  -8.5312   1.0178   1.5202   1.5230   1.8208   1.9551
     2.0362   2.6511   2.8262   2.9532   7.3569   7.9834   8.1637   8.4573

          k =-0.1262 0.2187 0.1310 (  7266 PWs)   bands (ev):

   -26.3698 -26.3192 -12.8828 -12.8554 -12.2258  -9.9822  -9.9326  -9.8286
    -9.3542  -8.5599  -8.5312   1.0177   1.5202   1.5226   1.8216   1.9609
     2.0258   2.6585   2.8262   2.9523   7.3857   7.9570   8.2212   8.4707

          k = 0.2525-0.0000 0.1310 (  7266 PWs)   bands (ev):

   -26.3698 -26.3192 -12.8828 -12.8554 -12.2258  -9.9822  -9.9326  -9.8286
    -9.3542  -8.5599  -8.5312   1.0177   1.5202   1.5226   1.8216   1.9609
     2.0258   2.6585   2.8262   2.9523   7.3857   7.9570   8.2212   8.4720

          k =-0.3787 0.3644 0.0437 (  7301 PWs)   bands (ev):

   -26.2291 -26.2099 -13.7168 -13.6050 -11.8914 -10.2682 -10.1651 -10.0255
    -9.7725  -8.1396  -7.9409   1.1670   1.5803   1.9321   2.1453   2.5091
     2.6582   2.8070   3.0136   3.1673   7.4244   8.2165   8.2947   8.4326

          k = 0.5050 0.1458 0.0437 (  7301 PWs)   bands (ev):

   -26.2291 -26.2099 -13.7169 -13.6051 -11.8914 -10.2682 -10.1650 -10.0255
    -9.7725  -8.1396  -7.9408   1.1670   1.5803   1.9321   2.1452   2.5091
     2.6582   2.8070   3.0136   3.1673   7.4244   8.2165   8.2946   8.4326

          k =-0.5050-0.1458 0.0437 (  7301 PWs)   bands (ev):

   -26.2291 -26.2099 -13.7169 -13.6051 -11.8914 -10.2682 -10.1650 -10.0255
    -9.7725  -8.1396  -7.9408   1.1668   1.5812   1.9321   2.1452   2.5066
     2.6597   2.8073   3.0132   3.1675   7.4258   8.2085   8.3062   8.4242

          k = 0.3787-0.3644 0.0437 (  7301 PWs)   bands (ev):

   -26.2291 -26.2099 -13.7168 -13.6051 -11.8914 -10.2682 -10.1651 -10.0255
    -9.7725  -8.1396  -7.9409   1.1668   1.5812   1.9321   2.1453   2.5066
     2.6596   2.8074   3.0132   3.1675   7.4259   8.2086   8.3064   8.4244

          k =-0.3787-0.3644-0.0437 (  7301 PWs)   bands (ev):

   -26.2291 -26.2099 -13.7169 -13.6051 -11.8914 -10.2682 -10.1650 -10.0255
    -9.7725  -8.1396  -7.9408   1.1670   1.5803   1.9321   2.1453   2.5091
     2.6582   2.8070   3.0136   3.1673   7.4243   8.2164   8.2946   8.4326

          k =-0.3787 0.3644 0.1310 (  7299 PWs)   bands (ev):

   -26.2291 -26.2099 -13.7168 -13.6050 -11.8914 -10.2682 -10.1651 -10.0255
    -9.7725  -8.1396  -7.9409   1.1662   1.5808   1.9322   2.1454   2.5087
     2.6578   2.8079   3.0147   3.1666   7.4261   8.2133   8.2969   8.4481

          k = 0.5050 0.1458 0.1310 (  7299 PWs)   bands (ev):

   -26.2291 -26.2099 -13.7169 -13.6051 -11.8914 -10.2682 -10.1650 -10.0255
    -9.7725  -8.1396  -7.9408   1.1662   1.5808   1.9322   2.1453   2.5087
     2.6578   2.8079   3.0148   3.1666   7.4261   8.2133   8.2968   8.4485

          k =-0.5050-0.1458 0.1310 (  7299 PWs)   bands (ev):

   -26.2291 -26.2099 -13.7169 -13.6051 -11.8914 -10.2682 -10.1650 -10.0255
    -9.7725  -8.1396  -7.9408   1.1660   1.5817   1.9322   2.1453   2.5062
     2.6593   2.8083   3.0144   3.1668   7.4274   8.2061   8.3068   8.4408

          k = 0.3787-0.3644 0.1310 (  7299 PWs)   bands (ev):

   -26.2291 -26.2099 -13.7168 -13.6051 -11.8914 -10.2682 -10.1651 -10.0255
    -9.7726  -8.1396  -7.9409   1.1660   1.5817   1.9322   2.1454   2.5062
     2.6593   2.8083   3.0143   3.1668   7.4275   8.2062   8.3069   8.4410

          k =-0.3787-0.3644-0.1310 (  7299 PWs)   bands (ev):

   -26.2291 -26.2099 -13.7169 -13.6051 -11.8914 -10.2682 -10.1650 -10.0255
    -9.7725  -8.1396  -7.9408   1.1662   1.5808   1.9322   2.1454   2.5087
     2.6578   2.8079   3.0148   3.1666   7.4260   8.2132   8.2967   8.4479

          k = 0.3787-0.0729 0.0437 (  7299 PWs)   bands (ev):

   -26.2899 -26.2541 -13.3747 -13.3153 -12.0763 -10.1896 -10.0537  -9.9461
    -9.5554  -8.2928  -8.1460   1.2339   1.4764   1.8563   2.1031   2.1327
     2.2687   2.7442   2.8776   3.0652   7.3943   8.0532   8.3750   8.4790

          k =-0.2525-0.2915 0.0437 (  7299 PWs)   bands (ev):

   -26.2899 -26.2541 -13.3748 -13.3154 -12.0763 -10.1896 -10.0536  -9.9461
    -9.5553  -8.2928  -8.1459   1.2339   1.4764   1.8563   2.1030   2.1328
     2.2687   2.7442   2.8776   3.0652   7.3942   8.0532   8.3750   8.4789

          k = 0.2525 0.2915 0.0437 (  7299 PWs)   bands (ev):

   -26.2899 -26.2541 -13.3748 -13.3153 -12.0763 -10.1896 -10.0536  -9.9461
    -9.5553  -8.2928  -8.1459   1.2337   1.4768   1.8563   2.1052   2.1278
     2.2708   2.7459   2.8776   3.0645   7.3877   8.0557   8.3974   8.4808

          k =-0.3787 0.0729 0.0437 (  7299 PWs)   bands (ev):

   -26.2899 -26.2541 -13.3747 -13.3153 -12.0763 -10.1896 -10.0537  -9.9461
    -9.5554  -8.2928  -8.1460   1.2336   1.4768   1.8563   2.1052   2.1278
     2.2708   2.7459   2.8776   3.0645   7.3878   8.0557   8.3974   8.4808

          k = 0.3787 0.0729-0.0437 (  7299 PWs)   bands (ev):

   -26.2899 -26.2541 -13.3747 -13.3153 -12.0763 -10.1896 -10.0537  -9.9461
    -9.5554  -8.2928  -8.1459   1.2339   1.4764   1.8563   2.1031   2.1327
     2.2686   2.7442   2.8776   3.0652   7.3942   8.0532   8.3750   8.4788

          k = 0.3787-0.0729 0.1310 (  7287 PWs)   bands (ev):

   -26.2899 -26.2541 -13.3747 -13.3153 -12.0763 -10.1896 -10.0537  -9.9461
    -9.5554  -8.2928  -8.1460   1.2342   1.4753   1.8564   2.1015   2.1337
     2.2676   2.7468   2.8791   3.0649   7.4018   8.0517   8.3484   8.5298

          k =-0.2525-0.2915 0.1310 (  7287 PWs)   bands (ev):

   -26.2899 -26.2541 -13.3748 -13.3154 -12.0763 -10.1896 -10.0536  -9.9461
    -9.5553  -8.2928  -8.1459   1.2342   1.4753   1.8564   2.1015   2.1337
     2.2676   2.7468   2.8791   3.0649   7.4018   8.0517   8.3483   8.5299

          k = 0.2525 0.2915 0.1310 (  7287 PWs)   bands (ev):

   -26.2899 -26.2541 -13.3748 -13.3153 -12.0763 -10.1896 -10.0536  -9.9461
    -9.5553  -8.2928  -8.1459   1.2340   1.4757   1.8564   2.1032   2.1291
     2.2697   2.7485   2.8791   3.0641   7.3951   8.0543   8.3649   8.5279

          k =-0.3787 0.0729 0.1310 (  7287 PWs)   bands (ev):

   -26.2899 -26.2541 -13.3747 -13.3153 -12.0763 -10.1896 -10.0537  -9.9461
    -9.5554  -8.2928  -8.1460   1.2340   1.4757   1.8563   2.1032   2.1291
     2.2697   2.7485   2.8791   3.0641   7.3952   8.0543   8.3649   8.5275

          k = 0.3787 0.0729-0.1310 (  7287 PWs)   bands (ev):

   -26.2899 -26.2541 -13.3748 -13.3153 -12.0763 -10.1896 -10.0537  -9.9461
    -9.5554  -8.2928  -8.1459   1.2342   1.4753   1.8564   2.1015   2.1336
     2.2676   2.7468   2.8791   3.0649   7.4018   8.0517   8.3484   8.5286

          k = 0.1262 0.0729 0.0437 (  7263 PWs)   bands (ev):

   -26.4240 -26.3653 -12.6891 -12.5199 -12.0030  -9.8988  -9.7553  -9.6990
    -9.4003  -8.8621  -8.7727   1.0619   1.1937   1.2238   1.5943   1.8697
     2.0249   2.6900   2.8244   2.9358   7.3462   7.7896   8.0701   8.4564

          k =-0.0000 0.1458 0.0437 (  7263 PWs)   bands (ev):

   -26.4240 -26.3653 -12.6891 -12.5199 -12.0030  -9.8988  -9.7553  -9.6990
    -9.4003  -8.8621  -8.7727   1.0621   1.1937   1.2239   1.5943   1.8651
     2.0291   2.6944   2.8200   2.9358   7.3552   7.7674   8.0647   8.4566

          k = 0.1262-0.0729-0.0437 (  7263 PWs)   bands (ev):

   -26.4240 -26.3653 -12.6891 -12.5199 -12.0029  -9.8987  -9.7553  -9.6990
    -9.4003  -8.8621  -8.7727   1.0619   1.1937   1.2238   1.5943   1.8696
     2.0249   2.6900   2.8244   2.9358   7.3462   7.7896   8.0702   8.4563

          k = 0.1262 0.0729 0.1310 (  7280 PWs)   bands (ev):

   -26.4240 -26.3653 -12.6891 -12.5199 -12.0030  -9.8988  -9.7553  -9.6990
    -9.4003  -8.8621  -8.7727   1.0614   1.1936   1.2237   1.5943   1.8606
     2.0370   2.6894   2.8228   2.9358   7.4146   7.9025   8.0978   8.2739

          k =-0.0000 0.1458 0.1310 (  7280 PWs)   bands (ev):

   -26.4240 -26.3653 -12.6891 -12.5199 -12.0030  -9.8988  -9.7553  -9.6990
    -9.4003  -8.8621  -8.7727   1.0617   1.1936   1.2238   1.5943   1.8566
     2.0407   2.6938   2.8183   2.9357   7.4272   7.8642   8.0687   8.3357

          k = 0.1262-0.0729-0.1310 (  7280 PWs)   bands (ev):

   -26.4240 -26.3653 -12.6891 -12.5199 -12.0029  -9.8988  -9.7553  -9.6990
    -9.4003  -8.8621  -8.7727   1.0614   1.1937   1.2237   1.5943   1.8606
     2.0370   2.6894   2.8228   2.9358   7.4147   7.9025   8.0978   8.2739

          k =-0.3787 0.6560 0.0437 (  7312 PWs)   bands (ev):

   -26.2015 -26.1937 -13.7057 -13.6732 -12.1773 -10.4982 -10.1216 -10.0380
    -9.6808  -7.9243  -7.9050   1.4891   1.9059   1.9813   2.0831   2.5234
     2.5406   2.7289   2.9481   3.2250   7.6621   8.1070   8.1568   8.2592

          k = 0.7575-0.0000 0.0437 (  7312 PWs)   bands (ev):

   -26.2015 -26.1937 -13.7057 -13.6732 -12.1773 -10.4982 -10.1216 -10.0380
    -9.6808  -7.9243  -7.9050   1.4891   1.9059   1.9813   2.0831   2.5234
     2.5406   2.7289   2.9481   3.2250   7.6621   8.1070   8.1568   8.2592

          k =-0.3787 0.6560 0.1310 (  7304 PWs)   bands (ev):

   -26.2015 -26.1937 -13.7057 -13.6732 -12.1773 -10.4982 -10.1216 -10.0380
    -9.6808  -7.9244  -7.9050   1.4884   1.9055   1.9804   2.0841   2.5234
     2.5424   2.7287   2.9480   3.2244   7.6648   8.0972   8.1653   8.2644

          k = 0.7575-0.0000 0.1310 (  7304 PWs)   bands (ev):

   -26.2015 -26.1937 -13.7057 -13.6732 -12.1773 -10.4982 -10.1216 -10.0380
    -9.6808  -7.9244  -7.9050   1.4884   1.9055   1.9804   2.0841   2.5234
     2.5424   2.7287   2.9480   3.2244   7.6648   8.0972   8.1654   8.2643

          k = 0.3787 0.2187 0.0437 (  7293 PWs)   bands (ev):

   -26.2651 -26.2355 -13.5923 -13.4576 -11.8472 -10.0445 -10.0062  -9.9759
    -9.9361  -8.3232  -8.0251   1.1628   1.3304   1.7772   2.2656   2.3942
     2.6107   2.7488   2.9534   3.0577   7.2918   8.2370   8.4002   8.5689

          k =-0.0000 0.4373 0.0437 (  7293 PWs)   bands (ev):

   -26.2651 -26.2355 -13.5923 -13.4577 -11.8472 -10.0445 -10.0062  -9.9759
    -9.9361  -8.3232  -8.0251   1.1620   1.3317   1.7772   2.2662   2.3941
     2.6114   2.7449   2.9550   3.0578   7.2975   8.2324   8.4106   8.5037

          k = 0.3787-0.2187-0.0437 (  7293 PWs)   bands (ev):

   -26.2651 -26.2355 -13.5923 -13.4576 -11.8472 -10.0445 -10.0063  -9.9759
    -9.9362  -8.3232  -8.0252   1.1628   1.3304   1.7772   2.2656   2.3942
     2.6107   2.7487   2.9534   3.0578   7.2919   8.2370   8.3999   8.5692

          k = 0.3787 0.2187 0.1310 (  7307 PWs)   bands (ev):

   -26.2651 -26.2355 -13.5923 -13.4576 -11.8472 -10.0445 -10.0062  -9.9759
    -9.9362  -8.3232  -8.0251   1.1618   1.3310   1.7772   2.2635   2.3941
     2.6120   2.7523   2.9521   3.0577   7.2951   8.2340   8.3920   8.5958

          k =-0.0000 0.4373 0.1310 (  7307 PWs)   bands (ev):

   -26.2651 -26.2355 -13.5923 -13.4577 -11.8472 -10.0445 -10.0062  -9.9759
    -9.9362  -8.3232  -8.0251   1.1610   1.3323   1.7772   2.2640   2.3940
     2.6127   2.7484   2.9537   3.0578   7.3010   8.2294   8.3978   8.5326

          k = 0.3787-0.2187-0.1310 (  7307 PWs)   bands (ev):

   -26.2651 -26.2355 -13.5923 -13.4576 -11.8472 -10.0445 -10.0063  -9.9759
    -9.9362  -8.3232  -8.0252   1.1618   1.3310   1.7772   2.2634   2.3941
     2.6120   2.7523   2.9521   3.0577   7.2952   8.2341   8.3921   8.5115

     the Fermi energy is     4.4224 ev

!    total energy              =    -350.80205346 Ry
     Harris-Foulkes estimate   =    -350.80205347 Ry
     estimated scf accuracy    <          9.6E-09 Ry

     The total energy is the sum of the following terms:

     one-electron contribution =    -290.29868986 Ry
     hartree contribution      =     163.31956278 Ry
     xc contribution           =    -170.14763100 Ry
     ewald contribution        =     -53.67529538 Ry
     smearing contrib. (-TS)   =      -0.00000000 Ry

     convergence has been achieved in  20 iterations

     negative rho (up, down):  3.084E-06 0.000E+00

     Forces acting on atoms (cartesian axes, Ry/au):

     atom    1 type  1   force =     0.00000566   -0.00000327   -0.01746543
     atom    2 type  1   force =    -0.00000566    0.00000327    0.01746543
     atom    3 type  2   force =     0.00000721   -0.00000416    0.01586022
     atom    4 type  2   force =    -0.00000721    0.00000416   -0.01586022
     atom    5 type  2   force =     0.00000000    0.00000000    0.00000000

     Total force =     0.033364     Total SCF correction =     0.000136


     Computing stress (Cartesian axis) and pressure


     negative rho (up, down):  3.084E-06 0.000E+00
          total   stress  (Ry/bohr**3)                   (kbar)     P=  -34.30
  -0.00021944   0.00000002  -0.00000002        -32.28      0.00     -0.00
   0.00000002  -0.00021942   0.00000001          0.00    -32.28      0.00
  -0.00000002   0.00000001  -0.00026073         -0.00      0.00    -38.36


     number of scf cycles    =   2
     number of bfgs steps    =   1

     enthalpy old            =    -350.7926762360 Ry
     enthalpy new            =    -350.8020534626 Ry

     CASE: enthalpy_new < enthalpy_old

     new trust radius        =       0.0898084220 bohr
     new conv_thr            =       0.0000000017 Ry

     new unit-cell volume =    867.13505 a.u.^3 (   128.49616 Ang^3 )
     density =      4.21039 g/cm^3

CELL_PARAMETERS (alat=  7.19040794)
   0.977310360   0.000002046  -0.000001829
  -0.488653408   0.846376623   0.000001829
  -0.000005270   0.000003043   2.819872444

ATOMIC_POSITIONS (crystal)
La       0.333331837   0.666668163   0.650446080
La       0.666668163   0.333331837   0.349553920
O        0.333332208   0.666667792   0.281877601
O        0.666667792   0.333332208   0.718122399
O       -0.000000000   0.000000000   0.500000000



     Writing output data file La2O3.save
     NEW-OLD atomic charge density approx. for the potential

     Check: negative/imaginary core charge=   -0.000234    0.000000

     negative rho (up, down):  6.188E-07 0.000E+00
     extrapolated charge   38.32264, renormalised to   40.00000

     total cpu time spent up to now is       93.0 secs

     Self-consistent Calculation

     iteration #  1     ecut=    60.00 Ry     beta= 0.70
     Davidson diagonalization with overlap
     c_bands:  2 eigenvalues not converged
     c_bands:  2 eigenvalues not converged
     c_bands:  2 eigenvalues not converged
     c_bands:  2 eigenvalues not converged
     c_bands:  2 eigenvalues not converged
     c_bands:  2 eigenvalues not converged
     c_bands:  2 eigenvalues not converged
     c_bands:  2 eigenvalues not converged
     c_bands:  2 eigenvalues not converged
     c_bands:  2 eigenvalues not converged
     c_bands:  1 eigenvalues not converged
     c_bands:  1 eigenvalues not converged
     c_bands:  2 eigenvalues not converged
     c_bands:  2 eigenvalues not converged
     c_bands:  2 eigenvalues not converged
     c_bands:  2 eigenvalues not converged
     c_bands:  2 eigenvalues not converged
     c_bands:  2 eigenvalues not converged
     c_bands:  2 eigenvalues not converged
     c_bands:  2 eigenvalues not converged
     c_bands:  2 eigenvalues not converged
     c_bands:  2 eigenvalues not converged
     c_bands:  2 eigenvalues not converged
     c_bands:  2 eigenvalues not converged
     c_bands:  2 eigenvalues not converged
     c_bands:  2 eigenvalues not converged
     c_bands:  2 eigenvalues not converged
     c_bands:  2 eigenvalues not converged
     c_bands:  2 eigenvalues not converged
     c_bands:  2 eigenvalues not converged
     c_bands:  2 eigenvalues not converged
     c_bands:  2 eigenvalues not converged
     c_bands:  2 eigenvalues not converged
     c_bands:  2 eigenvalues not converged
     c_bands:  2 eigenvalues not converged
     c_bands:  2 eigenvalues not converged
     c_bands:  2 eigenvalues not converged
     c_bands:  2 eigenvalues not converged
     c_bands:  2 eigenvalues not converged
     c_bands:  2 eigenvalues not converged
     c_bands:  2 eigenvalues not converged
     c_bands:  2 eigenvalues not converged
     c_bands:  2 eigenvalues not converged
     c_bands:  2 eigenvalues not converged
     c_bands:  2 eigenvalues not converged
     c_bands:  2 eigenvalues not converged
     c_bands:  2 eigenvalues not converged
     c_bands:  2 eigenvalues not converged
     c_bands:  1 eigenvalues not converged
     ethr =  1.00E-06,  avg # of iterations = 20.0

     negative rho (up, down):  6.913E-05 0.000E+00

     total cpu time spent up to now is      101.7 secs

     total energy              =    -350.01037498 Ry
     Harris-Foulkes estimate   =    -362.49961030 Ry
     estimated scf accuracy    <       0.63212304 Ry

     iteration #  2     ecut=    60.00 Ry     beta= 0.70
     Davidson diagonalization with overlap
     ethr =  1.58E-03,  avg # of iterations =  5.9

     total cpu time spent up to now is      104.9 secs

     total energy              =    -348.34680829 Ry
     Harris-Foulkes estimate   =    -352.93868869 Ry
     estimated scf accuracy    <      31.71304207 Ry

     iteration #  3     ecut=    60.00 Ry     beta= 0.70
     Davidson diagonalization with overlap
     ethr =  1.58E-03,  avg # of iterations =  6.0

     total cpu time spent up to now is      108.3 secs

     total energy              =    -350.80368457 Ry
     Harris-Foulkes estimate   =    -350.88873561 Ry
     estimated scf accuracy    <       0.33050365 Ry

     iteration #  4     ecut=    60.00 Ry     beta= 0.70
     Davidson diagonalization with overlap
     ethr =  8.26E-04,  avg # of iterations =  2.0

     total cpu time spent up to now is      110.0 secs

     total energy              =    -350.81944476 Ry
     Harris-Foulkes estimate   =    -350.83136106 Ry
     estimated scf accuracy    <       0.11054377 Ry

     iteration #  5     ecut=    60.00 Ry     beta= 0.70
     Davidson diagonalization with overlap
     ethr =  2.76E-04,  avg # of iterations =  1.8

     total cpu time spent up to now is      111.5 secs

     total energy              =    -350.81408733 Ry
     Harris-Foulkes estimate   =    -350.82299852 Ry
     estimated scf accuracy    <       0.07151385 Ry

     iteration #  6     ecut=    60.00 Ry     beta= 0.70
     Davidson diagonalization with overlap
     ethr =  1.79E-04,  avg # of iterations =  4.8

     negative rho (up, down):  1.533E-06 0.000E+00

     total cpu time spent up to now is      113.7 secs

     total energy              =    -350.81056556 Ry
     Harris-Foulkes estimate   =    -350.81580164 Ry
     estimated scf accuracy    <       0.04172328 Ry

     iteration #  7     ecut=    60.00 Ry     beta= 0.70
     Davidson diagonalization with overlap
     ethr =  1.04E-04,  avg # of iterations =  4.4

     negative rho (up, down):  1.457E-03 0.000E+00

     total cpu time spent up to now is      115.7 secs

     total energy              =    -350.80924714 Ry
     Harris-Foulkes estimate   =    -350.81207566 Ry
     estimated scf accuracy    <       0.02029915 Ry

     iteration #  8     ecut=    60.00 Ry     beta= 0.70
     Davidson diagonalization with overlap
     ethr =  5.07E-05,  avg # of iterations =  6.2

     negative rho (up, down):  1.622E-03 0.000E+00

     total cpu time spent up to now is      118.2 secs

     total energy              =    -350.80913042 Ry
     Harris-Foulkes estimate   =    -350.81019875 Ry
     estimated scf accuracy    <       0.00962288 Ry

     iteration #  9     ecut=    60.00 Ry     beta= 0.70
     Davidson diagonalization with overlap
     c_bands:  1 eigenvalues not converged
     c_bands:  1 eigenvalues not converged
     ethr =  2.41E-05,  avg # of iterations =  6.7

     negative rho (up, down):  5.685E-04 0.000E+00

     total cpu time spent up to now is      120.7 secs

     total energy              =    -350.80901291 Ry
     Harris-Foulkes estimate   =    -350.80958341 Ry
     estimated scf accuracy    <       0.00523468 Ry

     iteration # 10     ecut=    60.00 Ry     beta= 0.70
     Davidson diagonalization with overlap
     c_bands:  1 eigenvalues not converged
     c_bands:  1 eigenvalues not converged
     c_bands:  1 eigenvalues not converged
     c_bands:  1 eigenvalues not converged
     ethr =  1.31E-05,  avg # of iterations =  7.1

     negative rho (up, down):  5.492E-04 0.000E+00

     total cpu time spent up to now is      123.3 secs

     total energy              =    -350.80825812 Ry
     Harris-Foulkes estimate   =    -350.80917924 Ry
     estimated scf accuracy    <       0.00324683 Ry

     iteration # 11     ecut=    60.00 Ry     beta= 0.70
     Davidson diagonalization with overlap
     c_bands:  1 eigenvalues not converged
     c_bands:  1 eigenvalues not converged
     c_bands:  1 eigenvalues not converged
     c_bands:  1 eigenvalues not converged
     c_bands:  1 eigenvalues not converged
     ethr =  8.12E-06,  avg # of iterations =  8.2

     negative rho (up, down):  1.378E-06 0.000E+00

     total cpu time spent up to now is      126.5 secs

     total energy              =    -350.80850166 Ry
     Harris-Foulkes estimate   =    -350.80865688 Ry
     estimated scf accuracy    <       0.00032623 Ry

     iteration # 12     ecut=    60.00 Ry     beta= 0.70
     Davidson diagonalization with overlap
     c_bands:  1 eigenvalues not converged
     c_bands:  1 eigenvalues not converged
     c_bands:  1 eigenvalues not converged
     c_bands:  1 eigenvalues not converged
     c_bands:  1 eigenvalues not converged
     ethr =  8.16E-07,  avg # of iterations = 10.0

     negative rho (up, down):  1.175E-06 0.000E+00

     total cpu time spent up to now is      131.0 secs

     total energy              =    -350.80859801 Ry
     Harris-Foulkes estimate   =    -350.80860936 Ry
     estimated scf accuracy    <       0.00002886 Ry

     iteration # 13     ecut=    60.00 Ry     beta= 0.70
     Davidson diagonalization with overlap
     c_bands:  1 eigenvalues not converged
     ethr =  7.22E-08,  avg # of iterations =  4.3

     negative rho (up, down):  1.085E-06 0.000E+00

     total cpu time spent up to now is      133.4 secs

     total energy              =    -350.80860612 Ry
     Harris-Foulkes estimate   =    -350.80860646 Ry
     estimated scf accuracy    <       0.00000117 Ry

     iteration # 14     ecut=    60.00 Ry     beta= 0.70
     Davidson diagonalization with overlap
     ethr =  2.93E-09,  avg # of iterations =  5.1

     negative rho (up, down):  1.115E-06 0.000E+00

     total cpu time spent up to now is      136.3 secs

     total energy              =    -350.80860636 Ry
     Harris-Foulkes estimate   =    -350.80860687 Ry
     estimated scf accuracy    <       0.00000114 Ry

     iteration # 15     ecut=    60.00 Ry     beta= 0.70
     Davidson diagonalization with overlap
     ethr =  2.86E-09,  avg # of iterations =  2.5

     negative rho (up, down):  1.106E-06 0.000E+00

     total cpu time spent up to now is      138.2 secs

     total energy              =    -350.80860657 Ry
     Harris-Foulkes estimate   =    -350.80860658 Ry
     estimated scf accuracy    <       0.00000003 Ry

     iteration # 16     ecut=    60.00 Ry     beta= 0.70
     Davidson diagonalization with overlap
     ethr =  8.32E-11,  avg # of iterations =  5.0

     negative rho (up, down):  1.104E-06 0.000E+00

     total cpu time spent up to now is      141.1 secs

     total energy              =    -350.80860660 Ry
     Harris-Foulkes estimate   =    -350.80860661 Ry
     estimated scf accuracy    <       0.00000003 Ry

     iteration # 17     ecut=    60.00 Ry     beta= 0.70
     Davidson diagonalization with overlap
     ethr =  7.48E-11,  avg # of iterations =  2.0

     negative rho (up, down):  1.109E-06 0.000E+00

     total cpu time spent up to now is      142.7 secs

     total energy              =    -350.80860660 Ry
     Harris-Foulkes estimate   =    -350.80860660 Ry
     estimated scf accuracy    <          5.4E-09 Ry

     iteration # 18     ecut=    60.00 Ry     beta= 0.70
     Davidson diagonalization with overlap
     ethr =  1.36E-11,  avg # of iterations =  4.0

     negative rho (up, down):  1.111E-06 0.000E+00

     total cpu time spent up to now is      145.2 secs

     total energy              =    -350.80860660 Ry
     Harris-Foulkes estimate   =    -350.80860660 Ry
     estimated scf accuracy    <          3.2E-09 Ry

     iteration # 19     ecut=    60.00 Ry     beta= 0.70
     Davidson diagonalization with overlap
     ethr =  8.09E-12,  avg # of iterations =  2.0

     negative rho (up, down):  1.110E-06 0.000E+00

     total cpu time spent up to now is      146.9 secs

     End of self-consistent calculation

          k = 0.1279 0.2215 0.0443 (  7276 PWs)   bands (ev):

   -25.8587 -25.7899 -12.6421 -12.6088 -12.0751  -9.4637  -9.4491  -9.3153
    -8.8229  -7.9796  -7.9400   1.2359   1.7456   1.7854   2.1129   2.2156
     2.2947   2.9419   3.1205   3.2578   7.7665   8.4435   8.6619   9.0171

          k = 0.1279 0.2215 0.1330 (  7266 PWs)   bands (ev):

   -25.8587 -25.7899 -12.6421 -12.6088 -12.0751  -9.4637  -9.4491  -9.3153
    -8.8229  -7.9795  -7.9400   1.2358   1.7452   1.7854   2.1131   2.2221
     2.2839   2.9496   3.1204   3.2571   7.8003   8.4102   8.7033   8.9960

          k = 0.1279 0.5169 0.0443 (  7301 PWs)   bands (ev):

   -25.6862 -25.6601 -13.5591 -13.4215 -11.7284  -9.8222  -9.6993  -9.5278
    -9.2644  -7.5541  -7.3292   1.3950   1.8350   2.1427   2.4121   2.8089
     3.0087   3.1760   3.3990   3.5592   7.8356   8.7061   8.8331   8.9434

          k = 0.1279 0.5169 0.1330 (  7299 PWs)   bands (ev):

   -25.6862 -25.6601 -13.5591 -13.4215 -11.7284  -9.8222  -9.6993  -9.5278
    -9.2644  -7.5541  -7.3292   1.3942   1.8353   2.1429   2.4121   2.8095
     3.0079   3.1766   3.4001   3.5585   7.8376   8.7045   8.8319   8.9677

          k = 0.1279-0.3692 0.0443 (  7299 PWs)   bands (ev):

   -25.7612 -25.7124 -13.1815 -13.1070 -11.9189  -9.7415  -9.5702  -9.4189
    -9.0453  -7.7159  -7.5330   1.4685   1.7247   2.0785   2.3922   2.4102
     2.5884   3.0584   3.2144   3.4263   7.7907   8.5265   8.9415   9.0049

          k = 0.1279-0.3692 0.1330 (  7287 PWs)   bands (ev):

   -25.7612 -25.7124 -13.1815 -13.1070 -11.9189  -9.7415  -9.5702  -9.4189
    -9.0453  -7.7159  -7.5330   1.4688   1.7236   2.0785   2.3883   2.4127
     2.5885   3.0607   3.2161   3.4260   7.7998   8.5253   8.8965   9.0790

          k = 0.1279-0.0738 0.0443 (  7263 PWs)   bands (ev):

   -25.9244 -25.8445 -12.4847 -12.2487 -11.7781  -9.3796  -9.2403  -9.1679
    -8.8600  -8.2922  -8.1951   1.2813   1.3863   1.4438   1.8801   2.1353
     2.2977   2.9541   3.0980   3.2160   7.7808   8.2704   8.5411   8.8480

          k = 0.1279-0.0738 0.1330 (  7280 PWs)   bands (ev):

   -25.9244 -25.8446 -12.4847 -12.2487 -11.7781  -9.3796  -9.2403  -9.1679
    -8.8600  -8.2922  -8.1951   1.2808   1.3863   1.4437   1.8801   2.1265
     2.3095   2.9539   3.0965   3.2159   7.8610   8.3247   8.5655   8.8902

          k = 0.3837 0.6646 0.0443 (  7312 PWs)   bands (ev):

   -25.6519 -25.6413 -13.5373 -13.4968 -12.0422 -10.0758  -9.6433  -9.5414
    -9.1811  -7.3281  -7.2944   1.7350   2.1433   2.2432   2.3785   2.8462
     2.8572   3.0627   3.3111   3.6591   8.0979   8.6051   8.6290   8.7396

          k = 0.3837 0.6646 0.1330 (  7304 PWs)   bands (ev):

   -25.6519 -25.6413 -13.5373 -13.4968 -12.0422 -10.0758  -9.6433  -9.5414
    -9.1811  -7.3281  -7.2944   1.7344   2.1429   2.2424   2.3794   2.8482
     2.8570   3.0625   3.3113   3.6584   8.1008   8.5942   8.6392   8.7465

          k = 0.3837-0.2215 0.0443 (  7293 PWs)   bands (ev):

   -25.7307 -25.6903 -13.4263 -13.2604 -11.6724  -9.5752  -9.5539  -9.4501
    -9.4359  -7.7536  -7.4074   1.3954   1.5759   1.9680   2.5381   2.7474
     2.8977   3.1039   3.3210   3.4247   7.6971   8.7406   8.9588   9.0133

          k = 0.3837-0.2215 0.1330 (  7307 PWs)   bands (ev):

   -25.7307 -25.6903 -13.4263 -13.2604 -11.6724  -9.5751  -9.5539  -9.4502
    -9.4359  -7.7536  -7.4074   1.3943   1.5765   1.9680   2.5358   2.7473
     2.8999   3.1073   3.3192   3.4247   7.7014   8.7365   8.9393   9.0629

          k =-0.1279 0.2215 0.0443 (  7276 PWs)   bands (ev):

   -25.8587 -25.7899 -12.6420 -12.6088 -12.0751  -9.4637  -9.4492  -9.3153
    -8.8229  -7.9796  -7.9400   1.2359   1.7457   1.7854   2.1129   2.2156
     2.2947   2.9419   3.1205   3.2578   7.7665   8.4436   8.6619   9.0156

          k = 0.2558-0.0000 0.0443 (  7276 PWs)   bands (ev):

   -25.8587 -25.7899 -12.6420 -12.6088 -12.0751  -9.4637  -9.4492  -9.3153
    -8.8229  -7.9796  -7.9400   1.2359   1.7457   1.7854   2.1129   2.2156
     2.2947   2.9419   3.1205   3.2578   7.7665   8.4436   8.6619   9.0171

          k =-0.1279 0.2215 0.1330 (  7266 PWs)   bands (ev):

   -25.8587 -25.7899 -12.6421 -12.6088 -12.0751  -9.4638  -9.4491  -9.3153
    -8.8229  -7.9796  -7.9400   1.2357   1.7453   1.7854   2.1132   2.2221
     2.2839   2.9496   3.1204   3.2571   7.8003   8.4102   8.7033   8.9960

          k = 0.2558-0.0000 0.1330 (  7266 PWs)   bands (ev):

   -25.8587 -25.7899 -12.6421 -12.6088 -12.0751  -9.4638  -9.4491  -9.3153
    -8.8229  -7.9796  -7.9400   1.2357   1.7453   1.7854   2.1132   2.2221
     2.2839   2.9496   3.1204   3.2571   7.8003   8.4102   8.7033   8.9949

          k =-0.3837 0.3692 0.0443 (  7301 PWs)   bands (ev):

   -25.6862 -25.6601 -13.5591 -13.4215 -11.7284  -9.8222  -9.6993  -9.5278
    -9.2644  -7.5541  -7.3292   1.3952   1.8340   2.1427   2.4121   2.8115
     3.0073   3.1756   3.3993   3.5591   7.8339   8.7155   8.8176   8.9544

          k = 0.5116 0.1477 0.0443 (  7301 PWs)   bands (ev):

   -25.6862 -25.6601 -13.5591 -13.4215 -11.7284  -9.8222  -9.6993  -9.5278
    -9.2644  -7.5541  -7.3292   1.3952   1.8340   2.1428   2.4121   2.8115
     3.0073   3.1756   3.3993   3.5590   7.8339   8.7154   8.8176   8.9544

          k =-0.5116-0.1477 0.0443 (  7301 PWs)   bands (ev):

   -25.6862 -25.6601 -13.5591 -13.4215 -11.7284  -9.8222  -9.6993  -9.5278
    -9.2644  -7.5541  -7.3292   1.3950   1.8350   2.1428   2.4121   2.8089
     3.0087   3.1760   3.3990   3.5591   7.8356   8.7061   8.8331   8.9434

          k = 0.3837-0.3692 0.0443 (  7301 PWs)   bands (ev):

   -25.6862 -25.6601 -13.5590 -13.4215 -11.7284  -9.8222  -9.6993  -9.5278
    -9.2644  -7.5541  -7.3292   1.3950   1.8349   2.1427   2.4121   2.8089
     3.0087   3.1760   3.3990   3.5592   7.8356   8.7061   8.8332   8.9434

          k =-0.3837-0.3692-0.0443 (  7301 PWs)   bands (ev):

   -25.6862 -25.6601 -13.5591 -13.4215 -11.7284  -9.8222  -9.6993  -9.5278
    -9.2644  -7.5541  -7.3292   1.3952   1.8340   2.1427   2.4121   2.8115
     3.0073   3.1756   3.3992   3.5591   7.8339   8.7154   8.8176   8.9544

          k =-0.3837 0.3692 0.1330 (  7299 PWs)   bands (ev):

   -25.6862 -25.6601 -13.5591 -13.4215 -11.7284  -9.8222  -9.6993  -9.5278
    -9.2644  -7.5541  -7.3292   1.3944   1.8344   2.1429   2.4121   2.8121
     3.0065   3.1762   3.4004   3.5584   7.8360   8.7132   8.8185   8.9774

          k = 0.5116 0.1477 0.1330 (  7299 PWs)   bands (ev):

   -25.6862 -25.6601 -13.5591 -13.4215 -11.7284  -9.8222  -9.6993  -9.5278
    -9.2644  -7.5541  -7.3292   1.3944   1.8344   2.1429   2.4121   2.8122
     3.0064   3.1762   3.4004   3.5584   7.8360   8.7132   8.8184   8.9774

          k =-0.5116-0.1477 0.1330 (  7299 PWs)   bands (ev):

   -25.6862 -25.6601 -13.5591 -13.4215 -11.7284  -9.8222  -9.6993  -9.5278
    -9.2644  -7.5541  -7.3292   1.3942   1.8353   2.1429   2.4121   2.8095
     3.0079   3.1766   3.4002   3.5585   7.8377   8.7045   8.8319   8.9677

          k = 0.3837-0.3692 0.1330 (  7299 PWs)   bands (ev):

   -25.6862 -25.6601 -13.5591 -13.4215 -11.7284  -9.8222  -9.6993  -9.5278
    -9.2644  -7.5541  -7.3292   1.3942   1.8353   2.1429   2.4121   2.8095
     3.0079   3.1766   3.4002   3.5585   7.8377   8.7046   8.8319   8.9679

          k =-0.3837-0.3692-0.1330 (  7299 PWs)   bands (ev):

   -25.6862 -25.6601 -13.5591 -13.4215 -11.7284  -9.8222  -9.6993  -9.5278
    -9.2644  -7.5541  -7.3292   1.3944   1.8344   2.1429   2.4121   2.8121
     3.0065   3.1762   3.4004   3.5584   7.8360   8.7132   8.8184   8.9775

          k = 0.3837-0.0738 0.0443 (  7299 PWs)   bands (ev):

[...]

     total energy              =    -350.81337453 Ry
     Harris-Foulkes estimate   =    -350.81337453 Ry
     estimated scf accuracy    <       0.00000001 Ry

     iteration # 11     ecut=    60.00 Ry     beta= 0.70
     Davidson diagonalization with overlap
     ethr =  2.97E-11,  avg # of iterations =  4.3

     negative rho (up, down):  8.085E-07 0.000E+00

     total cpu time spent up to now is      419.8 secs

     total energy              =    -350.81337453 Ry
     Harris-Foulkes estimate   =    -350.81337453 Ry
     estimated scf accuracy    <          1.1E-09 Ry

     iteration # 12     ecut=    60.00 Ry     beta= 0.70
     Davidson diagonalization with overlap
     ethr =  2.63E-12,  avg # of iterations =  3.2

     negative rho (up, down):  8.081E-07 0.000E+00

     total cpu time spent up to now is      421.8 secs

     End of self-consistent calculation

          k = 0.1266 0.2192 0.0458 (  6730 PWs)   bands (ev):

   -25.6918 -25.5920 -12.4047 -12.3418 -12.0587  -9.3359  -9.2311  -9.1383
    -8.6718  -7.8964  -7.8160   1.3665   1.7774   1.9146   2.3204   2.4096
     2.4595   3.1586   3.2821   3.4770   7.8897   8.5960   8.7424   9.0603

          k = 0.1266 0.2192 0.1373 (  6733 PWs)   bands (ev):

   -25.6918 -25.5920 -12.4047 -12.3418 -12.0587  -9.3359  -9.2312  -9.1383
    -8.6717  -7.8964  -7.8160   1.3662   1.7772   1.9146   2.3208   2.4156
     2.4463   3.1706   3.2820   3.4757   7.9661   8.5477   8.7376   9.0595

          k = 0.1266 0.5115 0.0458 (  6730 PWs)   bands (ev):

   -25.5229 -25.4845 -13.3549 -13.1572 -11.6869  -9.7008  -9.5000  -9.3562
    -9.0806  -7.3670  -7.1174   1.5206   2.0140   2.2239   2.6300   3.0480
     3.1762   3.3413   3.5584   3.7452   8.0340   8.8298   9.0186   9.0443

          k = 0.1266 0.5115 0.1373 (  6742 PWs)   bands (ev):

   -25.5229 -25.4845 -13.3549 -13.1572 -11.6869  -9.7008  -9.5000  -9.3562
    -9.0806  -7.3670  -7.1174   1.5195   2.0141   2.2241   2.6299   3.0477
     3.1763   3.3420   3.5598   3.7447   8.0377   8.8315   9.0184   9.0789

          k = 0.1266-0.3654 0.0458 (  6725 PWs)   bands (ev):

   -25.5973 -25.5264 -12.9704 -12.8570 -11.8640  -9.6351  -9.3677  -9.2062
    -8.8874  -7.5930  -7.3444   1.6062   1.8825   2.1400   2.5464   2.6153
     2.7354   3.3143   3.4130   3.6031   7.9529   8.6811   9.0550   9.1564

          k = 0.1266-0.3654 0.1373 (  6727 PWs)   bands (ev):

   -25.5973 -25.5264 -12.9704 -12.8570 -11.8640  -9.6351  -9.3677  -9.2062
    -8.8874  -7.5930  -7.3444   1.6064   1.8811   2.1398   2.5418   2.6167
     2.7368   3.3174   3.4149   3.6033   7.9729   8.6830   9.0233   9.2088

          k = 0.1266-0.0731 0.0458 (  6732 PWs)   bands (ev):

   -25.7548 -25.6393 -12.2859 -11.9982 -11.6919  -9.1821  -9.1138  -9.0046
    -8.6820  -8.2334  -8.1218   1.4091   1.4163   1.5071   2.1057   2.3228
     2.5613   3.1284   3.2993   3.3765   7.8330   8.4714   8.6686   8.8537

          k = 0.1266-0.0731 0.1373 (  6725 PWs)   bands (ev):

   -25.7548 -25.6393 -12.2859 -11.9983 -11.6919  -9.1821  -9.1138  -9.0046
    -8.6820  -8.2334  -8.1218   1.4090   1.4155   1.5070   2.1057   2.3122
     2.5753   3.1297   3.2972   3.3764   8.0115   8.3835   8.6891   9.0673

          k = 0.3797 0.6576 0.0458 (  6728 PWs)   bands (ev):

   -25.4874 -25.4717 -13.2973 -13.2370 -12.0547  -9.8386  -9.5361  -9.3850
    -8.9210  -7.1509  -7.1066   1.8249   2.2964   2.4018   2.5363   3.0152
     3.0576   3.2795   3.5397   3.8107   8.2608   8.7344   8.7799   8.8625

          k = 0.3797 0.6576 0.1373 (  6729 PWs)   bands (ev):

   -25.4874 -25.4717 -13.2974 -13.2370 -12.0547  -9.8386  -9.5361  -9.3850
    -8.9210  -7.1509  -7.1066   1.8240   2.2953   2.4013   2.5374   3.0173
     3.0573   3.2795   3.5403   3.8096   8.2655   8.7509   8.7756   8.8597

          k = 0.3797-0.2192 0.0458 (  6730 PWs)   bands (ev):

   -25.5672 -25.5084 -13.2360 -12.9972 -11.5968  -9.4629  -9.4457  -9.2432
    -9.2401  -7.5766  -7.1943   1.5480   1.7560   2.0275   2.7129   2.9707
     3.0990   3.2532   3.5145   3.5892   7.9054   8.8849   9.0669   9.1821

          k = 0.3797-0.2192 0.1373 (  6735 PWs)   bands (ev):

   -25.5672 -25.5084 -13.2360 -12.9972 -11.5968  -9.4628  -9.4457  -9.2432
    -9.2402  -7.5766  -7.1943   1.5467   1.7562   2.0275   2.7102   2.9706
     3.1008   3.2568   3.5144   3.5892   7.9151   8.8761   9.0757   9.2518

          k =-0.1266 0.2192 0.0458 (  6730 PWs)   bands (ev):

   -25.6918 -25.5920 -12.4047 -12.3418 -12.0587  -9.3359  -9.2311  -9.1383
    -8.6718  -7.8964  -7.8160   1.3665   1.7774   1.9146   2.3204   2.4096
     2.4595   3.1586   3.2820   3.4770   7.8897   8.5960   8.7423   9.0603

          k = 0.2531-0.0000 0.0458 (  6730 PWs)   bands (ev):

   -25.6918 -25.5920 -12.4047 -12.3418 -12.0587  -9.3359  -9.2311  -9.1383
    -8.6718  -7.8964  -7.8160   1.3665   1.7774   1.9146   2.3204   2.4096
     2.4595   3.1586   3.2820   3.4770   7.8898   8.5960   8.7423   9.0603

          k =-0.1266 0.2192 0.1373 (  6733 PWs)   bands (ev):

   -25.6918 -25.5920 -12.4047 -12.3418 -12.0587  -9.3359  -9.2312  -9.1383
    -8.6718  -7.8964  -7.8160   1.3662   1.7772   1.9145   2.3208   2.4156
     2.4463   3.1706   3.2820   3.4757   7.9661   8.5477   8.7376   9.0595

          k = 0.2531-0.0000 0.1373 (  6733 PWs)   bands (ev):

   -25.6918 -25.5920 -12.4047 -12.3418 -12.0587  -9.3359  -9.2312  -9.1383
    -8.6718  -7.8964  -7.8160   1.3662   1.7772   1.9145   2.3208   2.4156
     2.4463   3.1706   3.2820   3.4757   7.9661   8.5476   8.7375   9.0595

          k =-0.3797 0.3654 0.0458 (  6730 PWs)   bands (ev):

   -25.5229 -25.4845 -13.3549 -13.1572 -11.6869  -9.7008  -9.5000  -9.3562
    -9.0806  -7.3670  -7.1174   1.5209   2.0128   2.2239   2.6299   3.0518
     3.1746   3.3407   3.5590   3.7446   8.0320   8.8433   8.9798   9.0698

          k = 0.5062 0.1461 0.0458 (  6730 PWs)   bands (ev):

   -25.5229 -25.4845 -13.3549 -13.1572 -11.6869  -9.7008  -9.5000  -9.3562
    -9.0806  -7.3670  -7.1174   1.5209   2.0128   2.2239   2.6299   3.0518
     3.1745   3.3407   3.5591   3.7446   8.0321   8.8433   8.9800   9.0697

          k =-0.5062-0.1461 0.0458 (  6730 PWs)   bands (ev):

   -25.5229 -25.4845 -13.3549 -13.1572 -11.6869  -9.7008  -9.5000  -9.3562
    -9.0806  -7.3670  -7.1174   1.5206   2.0140   2.2239   2.6300   3.0480
     3.1762   3.3413   3.5584   3.7452   8.0340   8.8298   9.0186   9.0443

          k = 0.3797-0.3654 0.0458 (  6730 PWs)   bands (ev):

   -25.5229 -25.4845 -13.3549 -13.1572 -11.6869  -9.7009  -9.5000  -9.3562
    -9.0806  -7.3670  -7.1174   1.5206   2.0140   2.2239   2.6301   3.0480
     3.1762   3.3413   3.5584   3.7452   8.0340   8.8297   9.0185   9.0443

          k =-0.3797-0.3654-0.0458 (  6730 PWs)   bands (ev):

   -25.5229 -25.4845 -13.3549 -13.1572 -11.6869  -9.7008  -9.5000  -9.3562
    -9.0806  -7.3670  -7.1174   1.5209   2.0128   2.2239   2.6299   3.0518
     3.1745   3.3407   3.5590   3.7446   8.0320   8.8433   8.9800   9.0697

          k =-0.3797 0.3654 0.1373 (  6742 PWs)   bands (ev):

   -25.5229 -25.4845 -13.3549 -13.1572 -11.6869  -9.7008  -9.5000  -9.3562
    -9.0806  -7.3670  -7.1174   1.5198   2.0129   2.2241   2.6298   3.0515
     3.1747   3.3414   3.5604   3.7440   8.0357   8.8442   8.9882   9.0963

          k = 0.5062 0.1461 0.1373 (  6742 PWs)   bands (ev):

   -25.5229 -25.4845 -13.3549 -13.1572 -11.6869  -9.7008  -9.5000  -9.3562
    -9.0806  -7.3670  -7.1174   1.5198   2.0129   2.2241   2.6297   3.0515
     3.1746   3.3414   3.5604   3.7440   8.0357   8.8443   8.9883   9.0963

          k =-0.5062-0.1461 0.1373 (  6742 PWs)   bands (ev):

   -25.5229 -25.4845 -13.3549 -13.1572 -11.6869  -9.7008  -9.5000  -9.3562
    -9.0806  -7.3670  -7.1174   1.5195   2.0141   2.2241   2.6299   3.0477
     3.1763   3.3420   3.5598   3.7447   8.0377   8.8315   9.0184   9.0789

          k = 0.3797-0.3654 0.1373 (  6742 PWs)   bands (ev):

   -25.5229 -25.4845 -13.3549 -13.1572 -11.6869  -9.7008  -9.5000  -9.3562
    -9.0806  -7.3670  -7.1174   1.5195   2.0141   2.2241   2.6299   3.0477
     3.1763   3.3420   3.5598   3.7447   8.0377   8.8314   9.0183   9.0788

          k =-0.3797-0.3654-0.1373 (  6742 PWs)   bands (ev):

   -25.5229 -25.4845 -13.3549 -13.1572 -11.6869  -9.7008  -9.5000  -9.3562
    -9.0806  -7.3670  -7.1174   1.5198   2.0129   2.2241   2.6297   3.0515
     3.1747   3.3414   3.5604   3.7440   8.0357   8.8443   8.9883   9.0963

          k = 0.3797-0.0731 0.0458 (  6725 PWs)   bands (ev):

   -25.5973 -25.5264 -12.9704 -12.8570 -11.8640  -9.6351  -9.3677  -9.2062
    -8.8874  -7.5930  -7.3444   1.6065   1.8821   2.1400   2.5480   2.6187
     2.7313   3.3121   3.4127   3.6044   7.9629   8.6772   8.9906   9.2040

          k =-0.2531-0.2923 0.0458 (  6725 PWs)   bands (ev):

   -25.5973 -25.5264 -12.9704 -12.8570 -11.8640  -9.6351  -9.3677  -9.2062
    -8.8874  -7.5930  -7.3444   1.6065   1.8821   2.1400   2.5480   2.6187
     2.7312   3.3121   3.4127   3.6044   7.9628   8.6772   8.9908   9.2040

          k = 0.2531 0.2923 0.0458 (  6725 PWs)   bands (ev):

   -25.5973 -25.5264 -12.9704 -12.8570 -11.8640  -9.6351  -9.3677  -9.2062
    -8.8874  -7.5930  -7.3444   1.6062   1.8825   2.1400   2.5464   2.6153
     2.7354   3.3143   3.4130   3.6031   7.9529   8.6811   9.0551   9.1564

          k =-0.3797 0.0731 0.0458 (  6725 PWs)   bands (ev):

   -25.5973 -25.5264 -12.9704 -12.8570 -11.8640  -9.6351  -9.3677  -9.2062
    -8.8874  -7.5930  -7.3444   1.6062   1.8825   2.1400   2.5464   2.6153
     2.7354   3.3143   3.4130   3.6031   7.9529   8.6811   9.0550   9.1564

          k = 0.3797 0.0731-0.0458 (  6725 PWs)   bands (ev):

   -25.5973 -25.5264 -12.9704 -12.8570 -11.8640  -9.6351  -9.3677  -9.2062
    -8.8874  -7.5930  -7.3444   1.6065   1.8821   2.1400   2.5480   2.6187
     2.7312   3.3121   3.4127   3.6044   7.9629   8.6772   8.9907   9.2040

          k = 0.3797-0.0731 0.1373 (  6727 PWs)   bands (ev):

   -25.5973 -25.5264 -12.9704 -12.8570 -11.8640  -9.6351  -9.3677  -9.2062
    -8.8874  -7.5930  -7.3444   1.6067   1.8806   2.1398   2.5435   2.6199
     2.7328   3.3152   3.4145   3.6047   7.9835   8.6789   8.9749   9.2308

          k =-0.2531-0.2923 0.1373 (  6727 PWs)   bands (ev):

   -25.5973 -25.5264 -12.9704 -12.8570 -11.8640  -9.6351  -9.3677  -9.2062
    -8.8874  -7.5930  -7.3444   1.6067   1.8806   2.1398   2.5435   2.6199
     2.7328   3.3152   3.4145   3.6047   7.9835   8.6789   8.9750   9.2313

          k = 0.2531 0.2923 0.1373 (  6727 PWs)   bands (ev):

   -25.5973 -25.5264 -12.9704 -12.8570 -11.8640  -9.6350  -9.3677  -9.2062
    -8.8874  -7.5930  -7.3444   1.6064   1.8811   2.1398   2.5418   2.6168
     2.7368   3.3174   3.4149   3.6033   7.9729   8.6830   9.0234   9.2088

          k =-0.3797 0.0731 0.1373 (  6727 PWs)   bands (ev):

   -25.5973 -25.5264 -12.9704 -12.8570 -11.8640  -9.6351  -9.3677  -9.2062
    -8.8874  -7.5930  -7.3444   1.6064   1.8811   2.1398   2.5418   2.6168
     2.7368   3.3174   3.4149   3.6033   7.9729   8.6830   9.0232   9.2088

          k = 0.3797 0.0731-0.1373 (  6727 PWs)   bands (ev):

   -25.5973 -25.5264 -12.9704 -12.8570 -11.8640  -9.6351  -9.3677  -9.2062
    -8.8874  -7.5930  -7.3444   1.6067   1.8806   2.1398   2.5435   2.6199
     2.7328   3.3152   3.4146   3.6046   7.9835   8.6789   8.9749   9.2314

          k = 0.1266 0.0731 0.0458 (  6732 PWs)   bands (ev):

   -25.7548 -25.6393 -12.2859 -11.9982 -11.6919  -9.1821  -9.1138  -9.0046
    -8.6821  -8.2334  -8.1218   1.4091   1.4160   1.5070   2.1057   2.3271
     2.5577   3.1212   3.3064   3.3765   7.8227   8.5141   8.6561   8.8535

          k =-0.0000 0.1461 0.0458 (  6732 PWs)   bands (ev):

   -25.7548 -25.6393 -12.2859 -11.9982 -11.6919  -9.1821  -9.1138  -9.0046
    -8.6820  -8.2334  -8.1218   1.4091   1.4163   1.5071   2.1057   2.3228
     2.5613   3.1284   3.2993   3.3765   7.8330   8.4715   8.6686   8.8537

          k = 0.1266-0.0731-0.0458 (  6732 PWs)   bands (ev):

   -25.7548 -25.6393 -12.2859 -11.9982 -11.6919  -9.1821  -9.1138  -9.0046
    -8.6820  -8.2334  -8.1218   1.4091   1.4160   1.5070   2.1057   2.3271
     2.5577   3.1212   3.3064   3.3765   7.8227   8.5141   8.6561   8.8535

          k = 0.1266 0.0731 0.1373 (  6723 PWs)   bands (ev):

   -25.7548 -25.6393 -12.2859 -11.9983 -11.6919  -9.1821  -9.1138  -9.0046
    -8.6820  -8.2334  -8.1218   1.4090   1.4152   1.5069   2.1057   2.3161
     2.5722   3.1222   3.3045   3.3765   7.9853   8.4541   8.6770   8.8538

          k = 0.0000 0.1461 0.1373 (  6724 PWs)   bands (ev):

   -25.7548 -25.6393 -12.2859 -11.9983 -11.6919  -9.1821  -9.1138  -9.0046
    -8.6820  -8.2334  -8.1218   1.4090   1.4155   1.5070   2.1057   2.3122
     2.5753   3.1297   3.2972   3.3764   8.0115   8.3836   8.6890   9.0674

          k = 0.1266-0.0731-0.1373 (  6725 PWs)   bands (ev):

   -25.7548 -25.6393 -12.2858 -11.9983 -11.6919  -9.1821  -9.1138  -9.0046
    -8.6820  -8.2334  -8.1218   1.4090   1.4152   1.5069   2.1057   2.3161
     2.5722   3.1222   3.3045   3.3765   7.9852   8.4542   8.6770   8.8538

          k =-0.3797 0.6576 0.0458 (  6728 PWs)   bands (ev):

   -25.4874 -25.4717 -13.2973 -13.2370 -12.0547  -9.8386  -9.5361  -9.3850
    -8.9210  -7.1509  -7.1066   1.8249   2.2964   2.4018   2.5363   3.0152
     3.0576   3.2795   3.5397   3.8107   8.2608   8.7345   8.7799   8.8624

          k = 0.7594-0.0000 0.0458 (  6728 PWs)   bands (ev):

   -25.4874 -25.4717 -13.2973 -13.2370 -12.0547  -9.8386  -9.5361  -9.3850
    -8.9210  -7.1509  -7.1066   1.8249   2.2964   2.4018   2.5363   3.0152
     3.0576   3.2795   3.5397   3.8107   8.2608   8.7345   8.7799   8.8624

          k =-0.3797 0.6576 0.1373 (  6729 PWs)   bands (ev):

   -25.4874 -25.4717 -13.2974 -13.2370 -12.0547  -9.8386  -9.5361  -9.3850
    -8.9210  -7.1509  -7.1066   1.8240   2.2953   2.4013   2.5374   3.0173
     3.0573   3.2795   3.5403   3.8096   8.2655   8.7510   8.7756   8.8597

          k = 0.7594-0.0000 0.1373 (  6729 PWs)   bands (ev):

   -25.4874 -25.4717 -13.2974 -13.2370 -12.0547  -9.8386  -9.5361  -9.3850
    -8.9210  -7.1509  -7.1066   1.8240   2.2953   2.4013   2.5374   3.0173
     3.0573   3.2795   3.5403   3.8096   8.2655   8.7510   8.7756   8.8597

          k = 0.3797 0.2192 0.0458 (  6730 PWs)   bands (ev):

   -25.5672 -25.5084 -13.2360 -12.9972 -11.5968  -9.4628  -9.4457  -9.2432
    -9.2401  -7.5766  -7.1943   1.5489   1.7542   2.0274   2.7116   2.9709
     3.0987   3.2591   3.5120   3.5891   7.8964   8.8910   9.1038   9.1708

          k =-0.0000 0.4384 0.0458 (  6730 PWs)   bands (ev):

   -25.5672 -25.5084 -13.2360 -12.9972 -11.5968  -9.4628  -9.4457  -9.2432
    -9.2401  -7.5766  -7.1943   1.5480   1.7560   2.0275   2.7129   2.9707
     3.0990   3.2532   3.5145   3.5892   7.9054   8.8849   9.0670   9.1821

          k = 0.3797-0.2192-0.0458 (  6730 PWs)   bands (ev):

   -25.5672 -25.5084 -13.2360 -12.9972 -11.5968  -9.4628  -9.4457  -9.2432
    -9.2401  -7.5766  -7.1943   1.5489   1.7542   2.0274   2.7116   2.9709
     3.0987   3.2591   3.5120   3.5891   7.8963   8.8911   9.1036   9.1708

          k = 0.3797 0.2192 0.1373 (  6737 PWs)   bands (ev):

   -25.5672 -25.5084 -13.2360 -12.9971 -11.5968  -9.4628  -9.4457  -9.2432
    -9.2402  -7.5766  -7.1943   1.5476   1.7544   2.0275   2.7089   2.9708
     3.1004   3.2628   3.5118   3.5890   7.9059   8.8829   9.0962   9.2914

          k =-0.0000 0.4384 0.1373 (  6736 PWs)   bands (ev):

   -25.5672 -25.5084 -13.2360 -12.9972 -11.5968  -9.4628  -9.4457  -9.2432
    -9.2402  -7.5766  -7.1943   1.5467   1.7562   2.0275   2.7102   2.9706
     3.1008   3.2568   3.5143   3.5892   7.9151   8.8762   9.0757   9.2517

          k = 0.3797-0.2192-0.1373 (  6737 PWs)   bands (ev):

   -25.5672 -25.5084 -13.2360 -12.9971 -11.5968  -9.4628  -9.4457  -9.2432
    -9.2401  -7.5766  -7.1943   1.5476   1.7544   2.0275   2.7090   2.9708
     3.1004   3.2628   3.5118   3.5890   7.9059   8.8828   9.0961   9.2913

     the Fermi energy is     5.1147 ev

!    total energy              =    -350.81337453 Ry
     Harris-Foulkes estimate   =    -350.81337453 Ry
     estimated scf accuracy    <          4.9E-11 Ry

     The total energy is the sum of the following terms:

     one-electron contribution =    -291.76721363 Ry
     hartree contribution      =     164.96150064 Ry
     xc contribution           =    -170.33605212 Ry
     ewald contribution        =     -53.67160942 Ry
     smearing contrib. (-TS)   =      -0.00000000 Ry

     convergence has been achieved in  12 iterations

     negative rho (up, down):  8.081E-07 0.000E+00

     Forces acting on atoms (cartesian axes, Ry/au):

     atom    1 type  1   force =     0.00000060   -0.00000035   -0.00009067
     atom    2 type  1   force =    -0.00000060    0.00000035    0.00009067
     atom    3 type  2   force =     0.00004512   -0.00002605    0.00139045
     atom    4 type  2   force =    -0.00004512    0.00002605   -0.00139045
     atom    5 type  2   force =     0.00000000    0.00000000    0.00000000

     Total force =     0.001972     Total SCF correction =     0.000001


     Computing stress (Cartesian axis) and pressure


     negative rho (up, down):  8.081E-07 0.000E+00
          total   stress  (Ry/bohr**3)                   (kbar)     P=    1.64
   0.00000671   0.00000006  -0.00000012          0.99      0.01     -0.02
   0.00000006   0.00000677   0.00000007          0.01      1.00      0.01
  -0.00000012   0.00000007   0.00002000         -0.02      0.01      2.94


     Writing output data file La2O3.save
 
     init_run     :      2.70s CPU      2.84s WALL (       2 calls)
     electrons    :    371.08s CPU    396.95s WALL (      11 calls)
     update_pot   :      3.56s CPU      3.58s WALL (       9 calls)
     forces       :      4.42s CPU      4.52s WALL (      11 calls)
     stress       :     12.33s CPU     12.59s WALL (      11 calls)

     Called by init_run:
     wfcinit      :      1.75s CPU      1.84s WALL (       2 calls)
     potinit      :      0.18s CPU      0.18s WALL (       2 calls)

     Called by electrons:
     c_bands      :    334.51s CPU    356.72s WALL (     148 calls)
     sum_band     :     31.16s CPU     33.42s WALL (     148 calls)
     v_of_rho     :      0.11s CPU      0.14s WALL (     157 calls)
     newd         :      5.38s CPU      6.44s WALL (     157 calls)
     mix_rho      :      0.19s CPU      0.20s WALL (     148 calls)

     Called by c_bands:
     init_us_2    :      4.61s CPU      4.75s WALL (   16640 calls)
     cegterg      :    309.43s CPU    331.29s WALL (    7696 calls)

     Called by sum_band:
     sum_band:bec :      0.21s CPU      0.21s WALL (    7696 calls)
     addusdens    :      5.27s CPU      6.63s WALL (     148 calls)

     Called by *egterg:
     h_psi        :    145.16s CPU    150.50s WALL (   48048 calls)
     s_psi        :      6.29s CPU      6.45s WALL (   48048 calls)
     g_psi        :      1.14s CPU      1.16s WALL (   40248 calls)
     cdiaghg      :    102.43s CPU    110.03s WALL (   47372 calls)

     Called by h_psi:
     h_psi:pot    :    144.23s CPU    149.53s WALL (   48048 calls)
     h_psi:calbec :      9.52s CPU      9.86s WALL (   48048 calls)
     vloc_psi     :    127.58s CPU    132.35s WALL (   48048 calls)
     add_vuspsi   :      6.90s CPU      7.10s WALL (   48048 calls)

     General routines
     calbec       :     12.22s CPU     12.66s WALL (   58604 calls)
     fft          :      0.56s CPU      0.57s WALL (    1034 calls)
     fftw         :    135.51s CPU    140.73s WALL ( 1355512 calls)
 
     Parallel routines
     fft_scatt_xy :     11.27s CPU     11.62s WALL ( 1356546 calls)
     fft_scatt_yz :     46.90s CPU     48.67s WALL ( 1356546 calls)
 
     PWSCF        :  6m36.73s CPU     7m 5.57s WALL

 
   This run was terminated on:  10:39:34   1Jul2019            

=------------------------------------------------------------------------------=
   JOB DONE.
=------------------------------------------------------------------------------=
