
     Program PWSCF v.6.2 (svn rev. 14038) starts on  1Jul2019 at  9:54:20 

     This program is part of the open-source Quantum ESPRESSO suite
     for quantum simulation of materials; please cite
         "P. Giannozzi et al., J. Phys.:Condens. Matter 21 395502 (2009);
         "P. Giannozzi et al., J. Phys.:Condens. Matter 29 465901 (2017);
          URL http://www.quantum-espresso.org", 
     in publications or presentations arising from this work. More details at
     http://www.quantum-espresso.org/quote

     Parallel version (MPI & OpenMP), running on      20 processor cores
     Number of MPI processes:                20
     Threads/MPI process:                     1

     MPI processes distributed on     1 nodes
     R & G space division:  proc/nbgrp/npool/nimage =      20
     Reading input from La3Ni2O7.in

     Current dimensions of program PWSCF are:
     Max number of different atomic species (ntypx) = 10
     Max number of k-points (npk) =  40000
     Max angular momentum in pseudopotentials (lmaxx) =  3
               file La.pz-spfn-rrkjus_psl.1.0.0.UPF: wavefunction(s)  4F renormalized
               file Ni.pz-n-rrkjus_psl.0.1.UPF: wavefunction(s)  3D renormalized

     Subspace diagonalization in iterative solution of the eigenvalue problem:
     one sub-group per band group will be used
     scalapack distributed-memory algorithm (size of sub-group:  3*  3 procs)

 
     Parallelization info
     --------------------
     sticks:   dense  smooth     PW     G-vecs:    dense   smooth      PW
     Min         187     187     52                 6381     6381     965
     Max         188     188     53                 6382     6382     969
     Sum        3745    3745   1059               127637   127637   19345
 


     bravais-lattice index     =           14
     lattice parameter (alat)  =      19.6422  a.u.
     unit-cell volume          =    2032.5609 (a.u.)^3
     number of atoms/cell      =           24
     number of atomic types    =            3
     number of electrons       =       190.00
     number of Kohn-Sham states=          114
     kinetic-energy cutoff     =      60.0000  Ry
     charge density cutoff     =     240.0000  Ry
     convergence threshold     =      1.0E-08
     mixing beta               =       0.7000
     number of iterations used =            8  plain     mixing
     Exchange-correlation      = LDA ( 1  1  0  0 0 0)
     nstep                     =          300


     celldm(1)=  19.642191  celldm(2)=   0.997797  celldm(3)=   0.529526
     celldm(4)=  -0.002023  celldm(5)=   0.002787  celldm(6)=  -0.861576

     crystal axes: (cart. coord. in units of alat)
               a(1) = (   1.000000   0.000000   0.000000 )  
               a(2) = (  -0.859678   0.506510   0.000000 )  
               a(3) = (   0.001476   0.000395   0.529524 )  

     reciprocal axes: (cart. coord. in units 2 pi/alat)
               b(1) = (  1.000000  1.697257 -0.004053 )  
               b(2) = (  0.000000  1.974294 -0.001473 )  
               b(3) = (  0.000000  0.000000  1.888489 )  


     PseudoPot. # 1 for La read from file:
     ./La.pz-spfn-rrkjus_psl.1.0.0.UPF
     MD5 check sum: e4cc26dd351bb2aa33b11ee919d4576a
     Pseudo is Ultrasoft + core correction, Zval = 11.0
     Generated using "atomic" code by A. Dal Corso v.6.2.2
     Using radial grid of 1253 points,  8 beta functions with: 
                l(1) =   0
                l(2) =   0
                l(3) =   1
                l(4) =   1
                l(5) =   2
                l(6) =   2
                l(7) =   3
                l(8) =   3
     Q(r) pseudized with 0 coefficients 


     PseudoPot. # 2 for Ni read from file:
     ./Ni.pz-n-rrkjus_psl.0.1.UPF
     MD5 check sum: 4def80e42349afdd14834ce81d852c61
     Pseudo is Ultrasoft + core correction, Zval = 10.0
     Generated using "atomic" code by A. Dal Corso v.5.0.2 svn rev. 9415
     Using radial grid of 1195 points,  6 beta functions with: 
                l(1) =   0
                l(2) =   0
                l(3) =   1
                l(4) =   1
                l(5) =   2
                l(6) =   2
     Q(r) pseudized with 0 coefficients 


     PseudoPot. # 3 for O  read from file:
     ./O.pz-n-rrkjus_psl.0.1.UPF
     MD5 check sum: 6e384d5705d3ad042f52b90450e69d34
     Pseudo is Ultrasoft + core correction, Zval =  6.0
     Generated using "atomic" code by A. Dal Corso v.5.0.2 svn rev. 9415
     Using radial grid of 1095 points,  4 beta functions with: 
                l(1) =   0
                l(2) =   0
                l(3) =   1
                l(4) =   1
     Q(r) pseudized with 0 coefficients 


     atomic species   valence    mass     pseudopotential
        La            11.00   138.90550     La( 1.00)
        Ni            10.00    58.69340     Ni( 1.00)
        O              6.00    15.99940     O ( 1.00)

     No symmetry found



   Cartesian axes

     site n.     atom                  positions (alat units)
         1           La  tau(   1) = (  -0.2311820   0.4686893   0.1401279  )
         2           La  tau(   2) = (   0.3730701   0.0383162   0.4049852  )
         3           La  tau(   3) = (   0.4306746   0.2887785   0.1395772  )
         4           La  tau(   4) = (  -0.2887225   0.2181041   0.4043921  )
         5           La  tau(   5) = (   0.0980500   0.3838283   0.1214092  )
         6           La  tau(   6) = (   0.0436117   0.1229618   0.3862029  )
         7           Ni  tau(   7) = (   0.2148974   0.0772308   0.1319626  )
         8           Ni  tau(   8) = (  -0.0731641   0.4294736   0.3966981  )
         9           Ni  tau(   9) = (  -0.1438849   0.1752220   0.1321745  )
        10           Ni  tau(  10) = (   0.2854611   0.3314929   0.3968834  )
        11           O   tau(  11) = (  -0.6715995   0.4557686   0.5284172  )
        12           O   tau(  12) = (   0.8138617   0.0512584   0.2635705  )
        13           O   tau(  13) = (   0.8120690   0.0481162   0.0030977  )
        14           O   tau(  14) = (  -0.6705426   0.4586844   0.2680450  )
        15           O   tau(  15) = (   0.2432801   0.2057276   0.2653921  )
        16           O   tau(  16) = (  -0.1021014   0.3012822   0.0004660  )
        17           O   tau(  17) = (  -0.1008894   0.3007540   0.2633163  )
        18           O   tau(  18) = (   0.2432055   0.2065159   0.5277182  )
        19           O   tau(  19) = (   0.4083535   0.0338064   0.1309142  )
        20           O   tau(  20) = (  -0.2663827   0.4730892   0.3960044  )
        21           O   tau(  21) = (   0.1093057   0.3943298   0.3951254  )
        22           O   tau(  22) = (   0.0319017   0.1129240   0.1304323  )
        23           O   tau(  23) = (   0.4783891   0.2688664   0.3960680  )
        24           O   tau(  24) = (  -0.3361042   0.2377510   0.1313219  )

     number of k points=    32  gaussian smearing, width (Ry)=  0.0100
                       cart. coord. in units 2pi/alat
        k(    1) = (   0.1250000   0.4589438   0.2353704), wk =   0.0625000
        k(    2) = (   0.1250000   0.4589438   0.7074926), wk =   0.0625000
        k(    3) = (   0.1250000   0.4589438  -0.7088741), wk =   0.0625000
        k(    4) = (   0.1250000   0.4589438  -0.2367518), wk =   0.0625000
        k(    5) = (   0.1250000   0.9525173   0.2350023), wk =   0.0625000
        k(    6) = (   0.1250000   0.9525173   0.7071245), wk =   0.0625000
        k(    7) = (   0.1250000   0.9525173  -0.7092422), wk =   0.0625000
        k(    8) = (   0.1250000   0.9525173  -0.2371200), wk =   0.0625000
        k(    9) = (   0.1250000  -0.5282031   0.2361067), wk =   0.0625000
        k(   10) = (   0.1250000  -0.5282031   0.7082289), wk =   0.0625000
        k(   11) = (   0.1250000  -0.5282031  -0.7081378), wk =   0.0625000
        k(   12) = (   0.1250000  -0.5282031  -0.2360156), wk =   0.0625000
        k(   13) = (   0.1250000  -0.0346297   0.2357385), wk =   0.0625000
        k(   14) = (   0.1250000  -0.0346297   0.7078608), wk =   0.0625000
        k(   15) = (   0.1250000  -0.0346297  -0.7085059), wk =   0.0625000
        k(   16) = (   0.1250000  -0.0346297  -0.2363837), wk =   0.0625000
        k(   17) = (   0.3750000   0.8832580   0.2343571), wk =   0.0625000
        k(   18) = (   0.3750000   0.8832580   0.7064793), wk =   0.0625000
        k(   19) = (   0.3750000   0.8832580  -0.7098874), wk =   0.0625000
        k(   20) = (   0.3750000   0.8832580  -0.2377652), wk =   0.0625000
        k(   21) = (   0.3750000   1.3768314   0.2339889), wk =   0.0625000
        k(   22) = (   0.3750000   1.3768314   0.7061112), wk =   0.0625000
        k(   23) = (   0.3750000   1.3768314  -0.7102555), wk =   0.0625000
        k(   24) = (   0.3750000   1.3768314  -0.2381333), wk =   0.0625000
        k(   25) = (   0.3750000  -0.1038890   0.2350934), wk =   0.0625000
        k(   26) = (   0.3750000  -0.1038890   0.7072156), wk =   0.0625000
        k(   27) = (   0.3750000  -0.1038890  -0.7091511), wk =   0.0625000
        k(   28) = (   0.3750000  -0.1038890  -0.2370289), wk =   0.0625000
        k(   29) = (   0.3750000   0.3896845   0.2347252), wk =   0.0625000
        k(   30) = (   0.3750000   0.3896845   0.7068475), wk =   0.0625000
        k(   31) = (   0.3750000   0.3896845  -0.7095193), wk =   0.0625000
        k(   32) = (   0.3750000   0.3896845  -0.2373970), wk =   0.0625000

     Dense  grid:   127637 G-vectors     FFT dimensions: ( 100, 100,  54)

     Estimated max dynamical RAM per process >     172.54 MB

     Estimated total dynamical RAM >       3.37 GB

     Check: negative/imaginary core charge=   -0.000429    0.000000

     Initial potential from superposition of free atoms

     starting charge  189.84009, renormalised to  190.00000
     Starting wfc are  212 randomized atomic wfcs

     total cpu time spent up to now is       12.8 secs

     Self-consistent Calculation

     iteration #  1     ecut=    60.00 Ry     beta= 0.70
     Davidson diagonalization with overlap
     ethr =  1.00E-02,  avg # of iterations =  2.0

     total cpu time spent up to now is       27.1 secs

     total energy              =   -1618.54496906 Ry
     Harris-Foulkes estimate   =   -1622.25543636 Ry
     estimated scf accuracy    <       4.76214140 Ry

     iteration #  2     ecut=    60.00 Ry     beta= 0.70
     Davidson diagonalization with overlap
     ethr =  2.51E-03,  avg # of iterations =  6.8

     total cpu time spent up to now is       60.4 secs

     total energy              =   -1615.21392011 Ry
     Harris-Foulkes estimate   =   -1625.32894312 Ry
     estimated scf accuracy    <      31.96921443 Ry

     iteration #  3     ecut=    60.00 Ry     beta= 0.70
     Davidson diagonalization with overlap
     ethr =  2.51E-03,  avg # of iterations =  7.8

     total cpu time spent up to now is       98.4 secs

     total energy              =   -1620.88604236 Ry
     Harris-Foulkes estimate   =   -1621.45069400 Ry
     estimated scf accuracy    <       1.79980532 Ry

     iteration #  4     ecut=    60.00 Ry     beta= 0.70
     Davidson diagonalization with overlap
     ethr =  9.47E-04,  avg # of iterations =  3.2

     total cpu time spent up to now is      115.3 secs

     total energy              =   -1620.54305395 Ry
     Harris-Foulkes estimate   =   -1621.65604973 Ry
     estimated scf accuracy    <      18.77297187 Ry

     iteration #  5     ecut=    60.00 Ry     beta= 0.70
     Davidson diagonalization with overlap
     ethr =  9.47E-04,  avg # of iterations =  2.2

     total cpu time spent up to now is      129.6 secs

     total energy              =   -1621.07406187 Ry
     Harris-Foulkes estimate   =   -1621.22991805 Ry
     estimated scf accuracy    <       0.87005888 Ry

     iteration #  6     ecut=    60.00 Ry     beta= 0.70
     Davidson diagonalization with overlap
     ethr =  4.58E-04,  avg # of iterations =  2.4

     total cpu time spent up to now is      144.0 secs

     total energy              =   -1621.03227368 Ry
     Harris-Foulkes estimate   =   -1621.26416792 Ry
     estimated scf accuracy    <       2.49534449 Ry

     iteration #  7     ecut=    60.00 Ry     beta= 0.70
     Davidson diagonalization with overlap
     ethr =  4.58E-04,  avg # of iterations =  1.1

     total cpu time spent up to now is      157.2 secs

     total energy              =   -1621.11167075 Ry
     Harris-Foulkes estimate   =   -1621.14591449 Ry
     estimated scf accuracy    <       0.24435298 Ry

     iteration #  8     ecut=    60.00 Ry     beta= 0.70
     Davidson diagonalization with overlap
     c_bands:  2 eigenvalues not converged
     ethr =  1.29E-04,  avg # of iterations =  8.8

     total cpu time spent up to now is      179.5 secs

     total energy              =   -1621.08554948 Ry
     Harris-Foulkes estimate   =   -1621.16282889 Ry
     estimated scf accuracy    <       0.81731955 Ry

     iteration #  9     ecut=    60.00 Ry     beta= 0.70
     Davidson diagonalization with overlap
     ethr =  1.29E-04,  avg # of iterations =  5.8

     total cpu time spent up to now is      197.3 secs

     total energy              =   -1621.11128846 Ry
     Harris-Foulkes estimate   =   -1621.12265958 Ry
     estimated scf accuracy    <       0.03177408 Ry

     iteration # 10     ecut=    60.00 Ry     beta= 0.70
     Davidson diagonalization with overlap
     ethr =  1.67E-05,  avg # of iterations =  9.2

     total cpu time spent up to now is      236.2 secs

     total energy              =   -1621.12258818 Ry
     Harris-Foulkes estimate   =   -1621.12543273 Ry
     estimated scf accuracy    <       0.00920287 Ry

     iteration # 11     ecut=    60.00 Ry     beta= 0.70
     Davidson diagonalization with overlap
     c_bands:  3 eigenvalues not converged
     c_bands:  1 eigenvalues not converged
     c_bands:  2 eigenvalues not converged
     ethr =  4.84E-06,  avg # of iterations =  6.5

     total cpu time spent up to now is      257.7 secs

     total energy              =   -1621.12308352 Ry
     Harris-Foulkes estimate   =   -1621.12394223 Ry
     estimated scf accuracy    <       0.00305175 Ry

     iteration # 12     ecut=    60.00 Ry     beta= 0.70
     Davidson diagonalization with overlap
     c_bands:  1 eigenvalues not converged
     c_bands:  3 eigenvalues not converged
     c_bands:  3 eigenvalues not converged
     c_bands:  1 eigenvalues not converged
     c_bands:  2 eigenvalues not converged
     c_bands:  1 eigenvalues not converged
     c_bands:  2 eigenvalues not converged
     c_bands:  2 eigenvalues not converged
     c_bands:  1 eigenvalues not converged
     c_bands:  2 eigenvalues not converged
     c_bands:  2 eigenvalues not converged
     c_bands:  1 eigenvalues not converged
     c_bands:  1 eigenvalues not converged
     c_bands:  1 eigenvalues not converged
     c_bands:  1 eigenvalues not converged
     c_bands:  1 eigenvalues not converged
     c_bands:  2 eigenvalues not converged
     c_bands:  1 eigenvalues not converged
     c_bands:  1 eigenvalues not converged
     c_bands:  1 eigenvalues not converged
     c_bands:  3 eigenvalues not converged
     c_bands:  3 eigenvalues not converged
     c_bands:  1 eigenvalues not converged
     c_bands:  2 eigenvalues not converged
     c_bands:  1 eigenvalues not converged
     c_bands:  3 eigenvalues not converged
     c_bands:  2 eigenvalues not converged
     c_bands:  1 eigenvalues not converged
     ethr =  1.61E-06,  avg # of iterations = 19.7

     total cpu time spent up to now is      306.0 secs

     total energy              =   -1621.12330125 Ry
     Harris-Foulkes estimate   =   -1621.12357645 Ry
     estimated scf accuracy    <       0.00064756 Ry

     iteration # 13     ecut=    60.00 Ry     beta= 0.70
     Davidson diagonalization with overlap
     c_bands:  2 eigenvalues not converged
     c_bands:  1 eigenvalues not converged
     c_bands:  3 eigenvalues not converged
     c_bands:  1 eigenvalues not converged
     c_bands:  2 eigenvalues not converged
     c_bands:  2 eigenvalues not converged
     c_bands:  2 eigenvalues not converged
     c_bands:  2 eigenvalues not converged
     c_bands:  3 eigenvalues not converged
     c_bands:  5 eigenvalues not converged
     c_bands:  4 eigenvalues not converged
     c_bands:  1 eigenvalues not converged
     c_bands:  1 eigenvalues not converged
     c_bands:  1 eigenvalues not converged
     c_bands:  1 eigenvalues not converged
     c_bands:  1 eigenvalues not converged
     c_bands:  1 eigenvalues not converged
     c_bands:  2 eigenvalues not converged
     c_bands:  1 eigenvalues not converged
     c_bands:  2 eigenvalues not converged
     c_bands:  1 eigenvalues not converged
     c_bands:  3 eigenvalues not converged
     ethr =  3.41E-07,  avg # of iterations = 19.5

     total cpu time spent up to now is      367.3 secs

     total energy              =   -1621.12343700 Ry
     Harris-Foulkes estimate   =   -1621.12355538 Ry
     estimated scf accuracy    <       0.00027481 Ry

     iteration # 14     ecut=    60.00 Ry     beta= 0.70
     Davidson diagonalization with overlap
     c_bands:  2 eigenvalues not converged
     c_bands:  1 eigenvalues not converged
     c_bands:  1 eigenvalues not converged
     c_bands:  1 eigenvalues not converged
     ethr =  1.45E-07,  avg # of iterations =  6.2

     total cpu time spent up to now is      390.4 secs

     total energy              =   -1621.12333692 Ry
     Harris-Foulkes estimate   =   -1621.12366469 Ry
     estimated scf accuracy    <       0.00514402 Ry

     iteration # 15     ecut=    60.00 Ry     beta= 0.70
     Davidson diagonalization with overlap
     ethr =  1.45E-07,  avg # of iterations =  2.3

     total cpu time spent up to now is      406.0 secs

     total energy              =   -1621.12350251 Ry
     Harris-Foulkes estimate   =   -1621.12351080 Ry
     estimated scf accuracy    <       0.00004763 Ry

     iteration # 16     ecut=    60.00 Ry     beta= 0.70
     Davidson diagonalization with overlap
     ethr =  2.51E-08,  avg # of iterations =  2.6

     total cpu time spent up to now is      422.7 secs

     total energy              =   -1621.12350142 Ry
     Harris-Foulkes estimate   =   -1621.12351263 Ry
     estimated scf accuracy    <       0.00009287 Ry

     iteration # 17     ecut=    60.00 Ry     beta= 0.70
     Davidson diagonalization with overlap
     ethr =  2.51E-08,  avg # of iterations =  2.0

     total cpu time spent up to now is      436.9 secs

     total energy              =   -1621.12350422 Ry
     Harris-Foulkes estimate   =   -1621.12351264 Ry
     estimated scf accuracy    <       0.00009135 Ry

     iteration # 18     ecut=    60.00 Ry     beta= 0.70
     Davidson diagonalization with overlap
     ethr =  2.51E-08,  avg # of iterations =  1.8

     total cpu time spent up to now is      450.9 secs

     total energy              =   -1621.12350461 Ry
     Harris-Foulkes estimate   =   -1621.12351220 Ry
     estimated scf accuracy    <       0.00008338 Ry

     iteration # 19     ecut=    60.00 Ry     beta= 0.70
     Davidson diagonalization with overlap
     ethr =  2.51E-08,  avg # of iterations =  1.0

     total cpu time spent up to now is      464.1 secs

     total energy              =   -1621.12350819 Ry
     Harris-Foulkes estimate   =   -1621.12350977 Ry
     estimated scf accuracy    <       0.00001184 Ry

     iteration # 20     ecut=    60.00 Ry     beta= 0.70
     Davidson diagonalization with overlap
     ethr =  6.23E-09,  avg # of iterations =  2.4

     total cpu time spent up to now is      479.3 secs

     total energy              =   -1621.12350905 Ry
     Harris-Foulkes estimate   =   -1621.12350938 Ry
     estimated scf accuracy    <       0.00000138 Ry

     iteration # 21     ecut=    60.00 Ry     beta= 0.70
     Davidson diagonalization with overlap
     ethr =  7.26E-10,  avg # of iterations =  5.2

     total cpu time spent up to now is      500.9 secs

     total energy              =   -1621.12350928 Ry
     Harris-Foulkes estimate   =   -1621.12350944 Ry
     estimated scf accuracy    <       0.00000025 Ry

     iteration # 22     ecut=    60.00 Ry     beta= 0.70
     Davidson diagonalization with overlap
     ethr =  1.31E-10,  avg # of iterations =  4.0

     total cpu time spent up to now is      520.3 secs

     total energy              =   -1621.12350932 Ry
     Harris-Foulkes estimate   =   -1621.12350934 Ry
     estimated scf accuracy    <       0.00000006 Ry

     iteration # 23     ecut=    60.00 Ry     beta= 0.70
     Davidson diagonalization with overlap
     ethr =  3.40E-11,  avg # of iterations =  4.0

     total cpu time spent up to now is      539.2 secs

     End of self-consistent calculation

          k = 0.1250 0.4589 0.2354 ( 15937 PWs)   bands (ev):

   -19.4844 -19.3973 -19.3502 -19.2969 -19.2359 -19.2139  -6.9775  -6.7351
    -6.5424  -6.2247  -6.1011  -6.0287  -5.7425  -5.4730  -5.3932  -5.3618
    -5.2436  -5.2087  -5.1409  -4.9368  -3.3855  -3.3411  -3.1018  -2.9563
    -2.9293  -2.8677  -2.8407  -2.7751  -2.6846  -2.6568  -2.5825  -2.5100
    -2.4437  -2.3659  -2.2807  -2.0293  -1.9951  -1.8602   5.1732   5.5122
     6.4382   6.6544   6.8636   6.9277   6.9376   7.0726   7.1290   7.1820
     7.2253   7.3682   7.4889   7.5597   7.6832   7.9327   7.9893   8.0150
     8.0701   8.2920   8.3925   8.4745   8.5182   8.7212   8.8144   8.9499
     9.0610   9.1228   9.1950   9.2314   9.3925   9.5224   9.5639   9.6955
     9.8401   9.8838   9.9577   9.9925  10.0830  10.1828  10.3284  10.3861
    10.7785  11.0003  11.0122  11.1028  11.4850  11.5634  11.5763  11.7127
    11.7397  11.7540  11.8362  11.9029  11.9488  12.0104  12.4082  12.7011
    13.3232  13.7653  14.2574  14.2666  14.3800  14.9131  15.0584  15.0794
    15.1968  15.2435  15.2596  15.3078  15.3558  15.4248  15.4414  15.4649
    15.4754  15.4870

          k = 0.1250 0.4589 0.7075 ( 15963 PWs)   bands (ev):

   -19.4569 -19.4202 -19.3216 -19.2960 -19.2437 -19.2326  -6.8371  -6.7410
    -6.7051  -6.5507  -6.0203  -6.0115  -5.9499  -5.7213  -5.5546  -5.4620
    -5.1866  -5.1707  -5.0568  -5.0110  -3.2895  -3.0245  -2.9786  -2.9505
    -2.8842  -2.7491  -2.7301  -2.7173  -2.6645  -2.6186  -2.5811  -2.5280
    -2.2064  -2.1633  -2.0165  -1.9648  -1.9488  -1.9083   5.5737   5.8145
     6.0774   6.2778   6.9234   6.9462   7.0549   7.0736   7.0998   7.1802
     7.2372   7.2456   7.2910   7.3274   7.5291   7.8598   7.8717   7.9706
     8.0701   8.1168   8.1696   8.2124   8.4038   8.4780   8.8351   8.8439
     9.0202   9.0620   9.1075   9.1835   9.2217   9.3207   9.4505   9.5365
     9.5668   9.6026   9.8032   9.8704   9.9276  10.1748  10.3078  10.3854
    10.8279  11.2034  11.3771  11.4019  11.4638  11.5186  11.5513  11.6272
    11.6825  11.7217  11.7359  11.7468  11.8942  12.1436  12.3783  12.9569
    12.9839  13.6400  13.9026  14.2541  14.7439  15.0979  15.1146  15.1487
    15.2236  15.2604  15.2908  15.3261  15.4040  15.4408  15.4689  15.4788
    15.4847  15.5008

          k = 0.1250 0.4589-0.7089 ( 15959 PWs)   bands (ev):

   -19.4563 -19.4208 -19.3212 -19.2959 -19.2441 -19.2327  -6.8361  -6.7417
    -6.7035  -6.5506  -6.0237  -6.0105  -5.9518  -5.7177  -5.5554  -5.4607
    -5.1885  -5.1699  -5.0591  -5.0091  -3.2891  -3.0244  -2.9789  -2.9511
    -2.8863  -2.7473  -2.7317  -2.7233  -2.6646  -2.6176  -2.5794  -2.5274
    -2.2028  -2.1649  -2.0167  -1.9612  -1.9494  -1.9090   5.5794   5.8224
     6.0744   6.2712   6.9228   6.9467   7.0560   7.0756   7.1007   7.1766
     7.2382   7.2437   7.2907   7.3273   7.5267   7.8596   7.8753   7.9692
     8.0686   8.1145   8.1676   8.2121   8.4050   8.4755   8.8335   8.8499
     9.0193   9.0618   9.1085   9.1800   9.2224   9.3211   9.4472   9.5375
     9.5660   9.6017   9.8061   9.8741   9.9281  10.1722  10.3126  10.3821
    10.8268  11.2071  11.3852  11.4091  11.4715  11.5182  11.5534  11.6279
    11.6760  11.7140  11.7285  11.7438  11.8874  12.1339  12.3821  12.9641
    12.9915  13.6379  13.9110  14.2455  14.7468  15.0985  15.1148  15.1478
    15.2250  15.2594  15.2934  15.3239  15.4026  15.4408  15.4691  15.4786
    15.4849  15.5014

          k = 0.1250 0.4589-0.2368 ( 15935 PWs)   bands (ev):

   -19.4842 -19.3976 -19.3500 -19.2967 -19.2361 -19.2141  -6.9771  -6.7353
    -6.5397  -6.2229  -6.1046  -6.0324  -5.7396  -5.4731  -5.3909  -5.3596
    -5.2447  -5.2109  -5.1425  -4.9359  -3.3867  -3.3411  -3.1018  -2.9568
    -2.9316  -2.8682  -2.8408  -2.7781  -2.6832  -2.6582  -2.5829  -2.5083
    -2.4410  -2.3657  -2.2798  -2.0285  -1.9958  -1.8595   5.1759   5.5158
     6.4389   6.6527   6.8631   6.9268   6.9401   7.0709   7.1265   7.1794
     7.2242   7.3688   7.4874   7.5655   7.6828   7.9379   7.9872   8.0131
     8.0674   8.2903   8.3907   8.4747   8.5176   8.7217   8.8146   8.9520
     9.0587   9.1203   9.1920   9.2303   9.3904   9.5247   9.5639   9.6932
     9.8440   9.8860   9.9608   9.9943  10.0820  10.1879  10.3249  10.3833
    10.7771  11.0072  11.0153  11.1077  11.4850  11.5645  11.5806  11.7086
    11.7334  11.7526  11.8378  11.9002  11.9422  12.0022  12.4126  12.7021
    13.3289  13.7735  14.2585  14.2667  14.3740  14.9120  15.0602  15.0825
    15.1957  15.2440  15.2618  15.3053  15.3554  15.4260  15.4432  15.4652
    15.4738  15.4866

          k = 0.1250 0.9525 0.2350 ( 15963 PWs)   bands (ev):

   -19.4427 -19.4322 -19.3317 -19.2819 -19.2597 -19.2251  -6.8110  -6.7336
    -6.6329  -6.5701  -5.9902  -5.8674  -5.7883  -5.7160  -5.5629  -5.5043
    -5.3855  -5.3220  -5.0880  -4.8732  -3.2261  -3.1524  -3.0912  -3.0632
    -2.9439  -2.8490  -2.7284  -2.6862  -2.6398  -2.5913  -2.5137  -2.4219
    -2.2901  -2.1773  -2.1426  -2.0548  -1.8621  -1.8131   5.7512   5.8474
     6.0116   6.0863   7.0179   7.0273   7.1072   7.1320   7.1517   7.1818
     7.1917   7.2213   7.4814   7.5775   7.5989   7.7590   7.8315   7.9507
     8.0288   8.0613   8.1422   8.1849   8.4071   8.4565   8.6803   8.7902
     8.8539   8.9649   9.0129   9.0828   9.3582   9.4375   9.6059   9.6326
     9.6939   9.7683   9.8463   9.9149  10.0091  10.0571  10.1684  10.3883
    11.1528  11.2064  11.3915  11.4462  11.4724  11.4898  11.5304  11.5538
    11.5667  11.5810  11.6454  11.6677  12.3497  12.4678  12.9468  12.9712
    13.3028  13.3328  13.8115  13.8732  14.8739  14.8984  15.0928  15.1375
    15.1876  15.1962  15.2765  15.3028  15.4057  15.4300  15.4508  15.4590
    15.4754  15.4869

          k = 0.1250 0.9525 0.7071 ( 15932 PWs)   bands (ev):

   -19.4377 -19.4328 -19.3159 -19.2953 -19.2497 -19.2324  -6.9055  -6.8617
    -6.6454  -6.5188  -6.2538  -6.0701  -5.9349  -5.8869  -5.6272  -5.6154
    -5.1810  -5.1316  -4.9938  -4.8990  -2.9869  -2.9335  -2.9162  -2.8954
    -2.7936  -2.7775  -2.7278  -2.7043  -2.6377  -2.5919  -2.5575  -2.4701
    -2.2274  -2.1523  -1.8958  -1.8696  -1.8199  -1.7796   5.7589   5.7969
     6.0810   6.0876   6.6251   6.6476   7.0310   7.0761   7.1244   7.1466
     7.2829   7.3399   7.4943   7.5100   7.6782   7.7086   7.7385   7.8059
     8.0030   8.0173   8.0969   8.1166   8.2809   8.2949   8.6365   8.7019
     8.8764   8.9214   9.0019   9.0419   9.2304   9.2592   9.3599   9.4501
     9.6027   9.6454   9.7713   9.8245   9.9511  10.0540  10.4008  10.4883
    10.8575  10.9015  11.4704  11.5100  11.5995  11.6050  11.6254  11.6437
    11.6632  11.6839  11.7028  11.7086  11.8859  11.9119  12.1657  12.1779
    13.3063  13.3492  14.2003  14.2291  15.0828  15.1057  15.1553  15.2035
    15.2390  15.2418  15.3361  15.3563  15.4024  15.4265  15.4769  15.4800
    15.5193  15.5313

          k = 0.1250 0.9525-0.7092 ( 15933 PWs)   bands (ev):

   -19.4374 -19.4332 -19.3161 -19.2952 -19.2496 -19.2325  -6.9045  -6.8628
    -6.6450  -6.5184  -6.2569  -6.0703  -5.9295  -5.8881  -5.6310  -5.6134
    -5.1794  -5.1313  -4.9962  -4.8981  -2.9866  -2.9345  -2.9164  -2.8948
    -2.7948  -2.7768  -2.7259  -2.7061  -2.6362  -2.5949  -2.5597  -2.4665
    -2.2264  -2.1520  -1.8923  -1.8747  -1.8194  -1.7794   5.7641   5.7917
     6.0704   6.0981   6.6254   6.6474   7.0299   7.0771   7.1229   7.1485
     7.2839   7.3387   7.4958   7.5092   7.6765   7.7115   7.7346   7.8067
     8.0011   8.0181   8.1030   8.1121   8.2790   8.2965   8.6374   8.7039
     8.8764   8.9213   9.0021   9.0371   9.2311   9.2614   9.3615   9.4534
     9.5975   9.6409   9.7704   9.8278   9.9549  10.0524  10.4017  10.4879
    10.8570  10.9016  11.4701  11.5101  11.5985  11.6066  11.6221  11.6465
    11.6631  11.6840  11.7004  11.7115  11.8810  11.9163  12.1659  12.1778
    13.3100  13.3454  14.1917  14.2377  15.0843  15.1042  15.1519  15.2062
    15.2395  15.2427  15.3381  15.3536  15.4030  15.4262  15.4764  15.4805
    15.5186  15.5312

          k = 0.1250 0.9525-0.2371 ( 15976 PWs)   bands (ev):

   -19.4426 -19.4323 -19.3318 -19.2818 -19.2596 -19.2252  -6.8104  -6.7342
    -6.6325  -6.5707  -5.9912  -5.8672  -5.7860  -5.7162  -5.5659  -5.5024
    -5.3844  -5.3229  -5.0880  -4.8731  -3.2262  -3.1520  -3.0912  -3.0631
    -2.9444  -2.8524  -2.7269  -2.6859  -2.6431  -2.5878  -2.5130  -2.4205
    -2.2893  -2.1788  -2.1413  -2.0553  -1.8630  -1.8131   5.7535   5.8450
     6.0077   6.0904   7.0181   7.0267   7.1085   7.1338   7.1506   7.1788
     7.1915   7.2224   7.4814   7.5756   7.6008   7.7584   7.8318   7.9511
     8.0302   8.0589   8.1405   8.1873   8.4060   8.4579   8.6811   8.7918
     8.8529   8.9636   9.0144   9.0836   9.3562   9.4348   9.6060   9.6328
     9.6943   9.7692   9.8469   9.9129  10.0126  10.0550  10.1694  10.3883
    11.1511  11.2072  11.3900  11.4480  11.4708  11.4917  11.5356  11.5494
    11.5669  11.5796  11.6450  11.6683  12.3470  12.4710  12.9476  12.9708
    13.3042  13.3306  13.8030  13.8815  14.8737  14.8990  15.0918  15.1382
    15.1886  15.1945  15.2752  15.3043  15.4060  15.4296  15.4521  15.4570
    15.4752  15.4875

          k = 0.1250-0.5282 0.2361 ( 15933 PWs)   bands (ev):

   -19.4797 -19.4001 -19.3594 -19.2905 -19.2333 -19.2155  -6.9526  -6.7679
    -6.5235  -6.2798  -6.0964  -6.0171  -5.7088  -5.4810  -5.3901  -5.3590
    -5.2838  -5.2041  -5.1329  -4.8762  -3.4749  -3.2920  -3.0483  -3.0029
    -2.9708  -2.8992  -2.8466  -2.7834  -2.7507  -2.6224  -2.5776  -2.4805
    -2.3972  -2.3489  -2.2120  -2.0556  -1.9978  -1.8818   5.1887   5.4993
     6.3739   6.6864   6.8427   6.9306   6.9421   7.0725   7.1334   7.1918
     7.2512   7.3134   7.4206   7.5895   7.7921   7.9378   7.9900   8.0583
     8.0959   8.3023   8.4455   8.4619   8.5453   8.6875   8.8085   8.8837
     8.9896   9.0924   9.1434   9.2924   9.3933   9.5650   9.6419   9.6679
     9.7420   9.9220   9.9692  10.0130  10.0563  10.1333  10.2716  10.4198
    10.8485  10.9978  11.0205  11.1047  11.4691  11.5333  11.5806  11.7238
    11.7422  11.7798  11.8377  11.8839  11.9495  12.0043  12.4785  12.6837
    13.2724  13.7865  14.2208  14.2741  14.3692  14.8571  15.0902  15.1164
    15.2014  15.2484  15.2609  15.3106  15.3370  15.4149  15.4297  15.4667
    15.4735  15.4810

          k = 0.1250-0.5282 0.7082 ( 15963 PWs)   bands (ev):

   -19.4535 -19.4204 -19.3293 -19.2959 -19.2417 -19.2301  -6.8547  -6.7493
    -6.6985  -6.4701  -6.1210  -6.0091  -5.9225  -5.7006  -5.5720  -5.5326
    -5.2193  -5.1943  -4.9864  -4.9190  -3.2617  -3.0460  -2.9932  -2.9335
    -2.9075  -2.8307  -2.7792  -2.7324  -2.6787  -2.5694  -2.4953  -2.4338
    -2.2928  -2.2242  -2.0132  -1.9700  -1.9127  -1.8817   5.5585   5.8464
     6.0206   6.3056   6.9189   6.9406   7.0519   7.0795   7.1034   7.1759
     7.2237   7.2441   7.2818   7.3858   7.5959   7.8435   7.9173   7.9998
     8.0855   8.1411   8.1703   8.2472   8.3832   8.4410   8.7614   8.8025
     8.8710   8.9942   9.0675   9.1611   9.2647   9.4000   9.4776   9.5365
     9.6323   9.7231   9.7567   9.8212   9.9229  10.0631  10.3334  10.4323
    10.8716  11.2171  11.3778  11.4013  11.4625  11.5199  11.5385  11.6162
    11.6777  11.7058  11.7346  11.7463  11.9052  12.1342  12.4034  12.9752
    13.0326  13.6398  13.8587  14.2289  14.7220  15.0936  15.1176  15.1556
    15.2121  15.2439  15.2833  15.3327  15.4097  15.4454  15.4701  15.4862
    15.4918  15.4984

          k = 0.1250-0.5282-0.7081 ( 15962 PWs)   bands (ev):

   -19.4541 -19.4199 -19.3298 -19.2957 -19.2414 -19.2300  -6.8539  -6.7496
    -6.7004  -6.4723  -6.1185  -6.0103  -5.9202  -5.7004  -5.5706  -5.5354
    -5.2160  -5.1951  -4.9872  -4.9197  -3.2612  -3.0476  -2.9948  -2.9334
    -2.9060  -2.8282  -2.7758  -2.7329  -2.6798  -2.5688  -2.4937  -2.4365
    -2.2938  -2.2207  -2.0130  -1.9742  -1.9140  -1.8805   5.5529   5.8382
     6.0246   6.3111   6.9220   6.9374   7.0498   7.0767   7.1047   7.1773
     7.2269   7.2461   7.2804   7.3863   7.5968   7.8375   7.9198   8.0039
     8.0894   8.1445   8.1688   8.2448   8.3787   8.4430   8.7610   8.8025
     8.8761   8.9953   9.0675   9.1584   9.2708   9.3991   9.4745   9.5401
     9.6336   9.7113   9.7586   9.8194   9.9211  10.0684  10.3302  10.4344
    10.8731  11.2128  11.3709  11.3937  11.4553  11.5190  11.5367  11.6155
    11.6844  11.7139  11.7411  11.7495  11.9126  12.1437  12.3990  12.9648
    13.0280  13.6419  13.8504  14.2378  14.7189  15.0913  15.1190  15.1571
    15.2109  15.2450  15.2806  15.3339  15.4114  15.4452  15.4705  15.4850
    15.4909  15.4984

          k = 0.1250-0.5282-0.2360 ( 15944 PWs)   bands (ev):

   -19.4799 -19.4000 -19.3596 -19.2906 -19.2330 -19.2155  -6.9528  -6.7680
    -6.5264  -6.2801  -6.0924  -6.0164  -5.7124  -5.4807  -5.3893  -5.3611
    -5.2837  -5.2010  -5.1325  -4.8766  -3.4744  -3.2899  -3.0504  -3.0029
    -2.9701  -2.9012  -2.8479  -2.7812  -2.7510  -2.6220  -2.5779  -2.4749
    -2.3970  -2.3487  -2.2146  -2.0567  -1.9987  -1.8820   5.1861   5.4956
     6.3745   6.6866   6.8410   6.9297   6.9434   7.0743   7.1361   7.1931
     7.2529   7.3129   7.4219   7.5832   7.7908   7.9353   7.9988   8.0571
     8.0942   8.3036   8.4489   8.4635   8.5416   8.6872   8.8112   8.8871
     8.9878   9.0927   9.1472   9.2918   9.3933   9.5637   9.6419   9.6687
     9.7385   9.9235   9.9672  10.0128  10.0588  10.1273  10.2703  10.4229
    10.8479  10.9912  11.0198  11.0998  11.4689  11.5327  11.5758  11.7282
    11.7479  11.7812  11.8362  11.8869  11.9569  12.0125  12.4730  12.6822
    13.2668  13.7785  14.2193  14.2741  14.3755  14.8552  15.0902  15.1140
    15.2036  15.2471  15.2586  15.3126  15.3377  15.4152  15.4271  15.4671
    15.4725  15.4830

          k = 0.1250-0.0346 0.2357 ( 15946 PWs)   bands (ev):

   -19.5020 -19.3864 -19.3688 -19.3030 -19.2176 -19.2060  -7.0582  -6.7759
    -6.3094  -6.1952  -6.1265  -5.9933  -5.5395  -5.4172  -5.2950  -5.2291
    -5.2061  -5.1672  -5.0498  -4.9010  -3.5646  -3.3836  -3.3579  -2.9833
    -2.9520  -2.9326  -2.8945  -2.8376  -2.7886  -2.7424  -2.6699  -2.6284
    -2.5357  -2.3478  -2.2791  -2.2397  -2.0397  -1.8687   4.9015   5.2362
     6.6671   6.7544   6.8286   6.8384   6.9816   7.0292   7.0826   7.1969
     7.2492   7.3844   7.6950   7.8176   7.8914   7.9738   7.9795   8.0274
     8.2423   8.5384   8.5606   8.5817   8.7576   8.8430   8.9841   9.0434
     9.0696   9.1009   9.1152   9.3777   9.4095   9.7593   9.8149   9.8555
    10.0255  10.1300  10.1669  10.1885  10.2637  10.3520  10.3720  10.4572
    10.5844  10.6336  10.7821  10.8271  11.4985  11.5715  11.5944  11.6822
    11.7910  11.8079  11.8207  11.8515  11.9911  12.0069  12.0606  12.7579
    12.9067  13.9012  14.0287  14.6883  14.7487  14.7790  14.8797  15.0469
    15.1692  15.2269  15.2530  15.2610  15.2760  15.3134  15.4536  15.4674
    15.4727  15.5016

          k = 0.1250-0.0346 0.7079 ( 15966 PWs)   bands (ev):

   -19.4649 -19.4156 -19.3333 -19.2966 -19.2401 -19.2275  -6.8802  -6.6945
    -6.5760  -6.4922  -5.9715  -5.7991  -5.6538  -5.6160  -5.5657  -5.4587
    -5.3441  -5.2967  -5.0447  -5.0187  -3.4225  -3.2363  -3.0679  -3.0286
    -2.8887  -2.8358  -2.7722  -2.7266  -2.6803  -2.6091  -2.5862  -2.4321
    -2.4155  -2.3789  -2.1414  -2.0140  -1.9432  -1.9267   5.4802   5.6829
     6.1793   6.3573   6.9807   6.9858   7.0462   7.0650   7.1729   7.2041
     7.2134   7.3529   7.4340   7.5447   7.6855   7.9082   7.9864   8.0156
     8.0299   8.1017   8.1283   8.2698   8.4846   8.5399   8.7532   8.8521
     8.9309   9.0231   9.1301   9.2411   9.2955   9.5180   9.6971   9.7821
     9.8199   9.8761   9.9072  10.0341  10.0433  10.1098  10.1755  10.2508
    11.0753  11.1201  11.1886  11.2175  11.5112  11.5248  11.5307  11.5880
    11.6070  11.7239  11.7498  11.7552  12.2942  12.5882  12.6557  12.7245
    13.4270  13.8316  13.8421  13.8992  14.5157  14.9970  15.0652  15.1209
    15.1708  15.2096  15.2653  15.3077  15.3835  15.4228  15.4521  15.4611
    15.4695  15.4837

          k = 0.1250-0.0346-0.7085 ( 15965 PWs)   bands (ev):

   -19.4649 -19.4157 -19.3334 -19.2964 -19.2400 -19.2277  -6.8796  -6.6952
    -6.5768  -6.4916  -5.9718  -5.7986  -5.6559  -5.6132  -5.5653  -5.4594
    -5.3427  -5.2974  -5.0440  -5.0203  -3.4210  -3.2376  -3.0675  -3.0289
    -2.8886  -2.8355  -2.7721  -2.7260  -2.6836  -2.6065  -2.5865  -2.4335
    -2.4155  -2.3780  -2.1440  -2.0114  -1.9438  -1.9257   5.4797   5.6834
     6.1820   6.3545   6.9814   6.9857   7.0441   7.0662   7.1730   7.2002
     7.2173   7.3513   7.4360   7.5474   7.6841   7.9055   7.9867   8.0134
     8.0283   8.1043   8.1284   8.2709   8.4816   8.5412   8.7512   8.8568
     8.9361   9.0209   9.1372   9.2314   9.2984   9.5156   9.6895   9.7883
     9.8119   9.8781   9.9096  10.0329  10.0463  10.1155  10.1731  10.2499
    11.0755  11.1193  11.1881  11.2191  11.5080  11.5252  11.5345  11.5865
    11.6075  11.7245  11.7475  11.7566  12.2943  12.5882  12.6555  12.7244
    13.4270  13.8303  13.8439  13.8990  14.5156  14.9970  15.0656  15.1205
    15.1696  15.2109  15.2650  15.3079  15.3822  15.4232  15.4519  15.4623
    15.4677  15.4843

          k = 0.1250-0.0346-0.2364 ( 15942 PWs)   bands (ev):

   -19.5020 -19.3865 -19.3687 -19.3030 -19.2175 -19.2061  -7.0582  -6.7759
    -6.3088  -6.1953  -6.1276  -5.9930  -5.5396  -5.4169  -5.2956  -5.2271
    -5.2084  -5.1666  -5.0490  -4.9011  -3.5645  -3.3833  -3.3579  -2.9830
    -2.9530  -2.9332  -2.8942  -2.8369  -2.7866  -2.7450  -2.6720  -2.6292
    -2.5339  -2.3489  -2.2771  -2.2397  -2.0401  -1.8680   4.9016   5.2361
     6.6679   6.7550   6.8285   6.8382   6.9814   7.0284   7.0813   7.1970
     7.2497   7.3842   7.6956   7.8170   7.8970   7.9681   7.9810   8.0270
     8.2420   8.5367   8.5595   8.5814   8.7587   8.8444   8.9855   9.0453
     9.0685   9.1000   9.1132   9.3792   9.4095   9.7616   9.8138   9.8546
    10.0249  10.1298  10.1686  10.1877  10.2641  10.3516  10.3750  10.4521
    10.5836  10.6344  10.7815  10.8294  11.4987  11.5714  11.5942  11.6822
    11.7952  11.8025  11.8219  11.8514  11.9917  12.0060  12.0609  12.7577
    12.9068  13.9005  14.0289  14.6885  14.7487  14.7787  14.8792  15.0470
    15.1692  15.2298  15.2533  15.2595  15.2760  15.3117  15.4535  15.4637
    15.4742  15.5015

          k = 0.3750 0.8833 0.2344 ( 15958 PWs)   bands (ev):

   -19.4407 -19.4349 -19.3290 -19.2864 -19.2565 -19.2258  -6.8224  -6.7153
    -6.6428  -6.5664  -5.9798  -5.8682  -5.8199  -5.7099  -5.5264  -5.5182
    -5.3674  -5.3306  -5.1089  -4.8726  -3.2048  -3.1541  -3.1167  -3.0754
    -2.9349  -2.8327  -2.7414  -2.6756  -2.6088  -2.5963  -2.5137  -2.4511
    -2.2677  -2.1860  -2.1392  -2.0838  -1.8566  -1.8045   5.7520   5.8358
     6.0148   6.0905   7.0116   7.0306   7.1200   7.1241   7.1465   7.1954
     7.2021   7.2153   7.4318   7.5813   7.6282   7.7631   7.8140   7.9746
     8.0248   8.0573   8.1426   8.2007   8.4212   8.4346   8.6675   8.7900
     8.8556   8.9639   9.0159   9.1060   9.3365   9.4577   9.5897   9.6695
     9.6979   9.7646   9.8017   9.9121  10.0007  10.0727  10.1958  10.3641
    11.1450  11.2114  11.3902  11.4378  11.4791  11.4854  11.5334  11.5612
    11.5677  11.5827  11.6323  11.6686  12.3544  12.4641  12.9512  12.9694
    13.3062  13.3322  13.8131  13.8721  14.8694  14.9025  15.0898  15.1399
    15.1826  15.2003  15.2680  15.3046  15.4158  15.4262  15.4400  15.4629
    15.4768  15.4944

          k = 0.3750 0.8833 0.7065 ( 15952 PWs)   bands (ev):

   -19.4370 -19.4337 -19.3147 -19.2964 -19.2492 -19.2328  -6.9124  -6.8583
    -6.6347  -6.5194  -6.2444  -6.1246  -5.9278  -5.8624  -5.6168  -5.5922
    -5.1992  -5.1480  -4.9918  -4.8959  -2.9743  -2.9477  -2.9234  -2.8927
    -2.8019  -2.7791  -2.7242  -2.6921  -2.6248  -2.6044  -2.5415  -2.4632
    -2.2354  -2.1648  -1.9085  -1.8763  -1.8066  -1.7728   5.7579   5.7933
     6.0812   6.0917   6.6216   6.6530   7.0264   7.0784   7.1358   7.1474
     7.2744   7.3417   7.4749   7.5017   7.6837   7.7075   7.7215   7.8255
     7.9857   8.0117   8.1235   8.1305   8.2844   8.2946   8.6161   8.6889
     8.8967   8.9396   8.9911   9.0230   9.2283   9.2666   9.4135   9.5147
     9.5655   9.6296   9.7530   9.8250   9.9367  10.0481  10.4080  10.4667
    10.8502  10.9039  11.4764  11.5046  11.5894  11.6089  11.6322  11.6407
    11.6582  11.6833  11.7084  11.7140  11.8847  11.9048  12.1686  12.1797
    13.3125  13.3533  14.1972  14.2263  15.0864  15.1045  15.1477  15.2212
    15.2323  15.2403  15.3295  15.3470  15.4029  15.4290  15.4794  15.4817
    15.5177  15.5283

          k = 0.3750 0.8833-0.7099 ( 15952 PWs)   bands (ev):

   -19.4365 -19.4343 -19.3148 -19.2963 -19.2491 -19.2329  -6.9115  -6.8593
    -6.6343  -6.5189  -6.2508  -6.1173  -5.9301  -5.8623  -5.6138  -5.5940
    -5.2008  -5.1471  -4.9908  -4.8970  -2.9749  -2.9480  -2.9219  -2.8930
    -2.8011  -2.7798  -2.7240  -2.6936  -2.6247  -2.6056  -2.5439  -2.4597
    -2.2299  -2.1693  -1.9074  -1.8762  -1.8090  -1.7719   5.7637   5.7874
     6.0721   6.1007   6.6219   6.6530   7.0251   7.0795   7.1325   7.1511
     7.2751   7.3416   7.4768   7.4988   7.6810   7.7105   7.7194   7.8276
     7.9853   8.0121   8.1180   8.1368   8.2810   8.2946   8.6204   8.6871
     8.9003   8.9376   8.9923   9.0221   9.2274   9.2653   9.4121   9.5136
     9.5675   9.6304   9.7553   9.8210   9.9393  10.0467  10.4086  10.4671
    10.8501  10.9035  11.4760  11.5047  11.5883  11.6116  11.6289  11.6413
    11.6594  11.6830  11.7065  11.7169  11.8796  11.9093  12.1688  12.1796
    13.3167  13.3488  14.1889  14.2347  15.0884  15.1023  15.1460  15.2223
    15.2339  15.2393  15.3345  15.3422  15.4033  15.4289  15.4784  15.4826
    15.5175  15.5313

          k = 0.3750 0.8833-0.2378 ( 15967 PWs)   bands (ev):

   -19.4404 -19.4351 -19.3290 -19.2864 -19.2564 -19.2259  -6.8220  -6.7147
    -6.6441  -6.5662  -5.9802  -5.8670  -5.8207  -5.7092  -5.5286  -5.5176
    -5.3663  -5.3304  -5.1088  -4.8728  -3.2046  -3.1531  -3.1175  -3.0772
    -2.9361  -2.8306  -2.7417  -2.6773  -2.6083  -2.5949  -2.5168  -2.4487
    -2.2657  -2.1833  -2.1400  -2.0861  -1.8572  -1.8044   5.7545   5.8332
     6.0109   6.0947   7.0112   7.0310   7.1205   7.1249   7.1465   7.1940
     7.2013   7.2158   7.4323   7.5829   7.6255   7.7630   7.8144   7.9734
     8.0264   8.0575   8.1451   8.1978   8.4197   8.4343   8.6701   8.7947
     8.8547   8.9633   9.0117   9.1067   9.3357   9.4583   9.5907   9.6686
     9.6991   9.7649   9.7971   9.9145  10.0011  10.0729  10.1962  10.3645
    11.1429  11.2130  11.3875  11.4396  11.4781  11.4878  11.5344  11.5615
    11.5682  11.5808  11.6319  11.6687  12.3522  12.4665  12.9522  12.9687
    13.3078  13.3299  13.8044  13.8807  14.8693  14.9031  15.0889  15.1405
    15.1831  15.1992  15.2669  15.3060  15.4172  15.4253  15.4402  15.4614
    15.4767  15.4954

          k = 0.3750 1.3768 0.2340 ( 15946 PWs)   bands (ev):

   -19.4745 -19.4055 -19.3644 -19.2873 -19.2279 -19.2190  -6.9050  -6.8284
    -6.4925  -6.3378  -6.0996  -5.9945  -5.6887  -5.4828  -5.4169  -5.3578
    -5.2643  -5.1892  -5.1358  -4.8468  -3.5274  -3.2534  -3.0869  -3.0120
    -2.9925  -2.9623  -2.7946  -2.7665  -2.7206  -2.6879  -2.5862  -2.5094
    -2.3431  -2.2156  -2.1723  -2.1376  -2.0024  -1.9033   5.2047   5.4775
     6.3202   6.7060   6.8265   6.9320   6.9449   7.0724   7.1457   7.1982
     7.2311   7.3111   7.3818   7.6179   7.8514   7.9642   7.9881   8.0968
     8.1427   8.3281   8.3867   8.5015   8.6175   8.6788   8.7573   8.8615
     8.9780   9.0410   9.1193   9.2399   9.4349   9.5723   9.5909   9.6800
     9.7896   9.9153   9.9867  10.0113  10.0477  10.1387  10.1932  10.4175
    10.9214  10.9975  11.0154  11.1111  11.4408  11.5022  11.5763  11.7131
    11.7372  11.7992  11.8483  11.8947  11.9620  12.0062  12.5599  12.6613
    13.2098  13.7999  14.1892  14.2828  14.3616  14.7977  15.1135  15.1333
    15.2369  15.2602  15.2771  15.2875  15.3218  15.3929  15.4197  15.4596
    15.4663  15.4816

          k = 0.3750 1.3768 0.7061 ( 15946 PWs)   bands (ev):

   -19.4504 -19.4205 -19.3356 -19.2973 -19.2387 -19.2283  -6.8683  -6.7727
    -6.6674  -6.3872  -6.1703  -6.0557  -5.9275  -5.7348  -5.5745  -5.5087
    -5.2334  -5.2081  -4.9489  -4.8702  -3.2100  -3.0989  -2.9923  -2.9579
    -2.9450  -2.8231  -2.7472  -2.7281  -2.6676  -2.6263  -2.4449  -2.3804
    -2.3148  -2.2949  -2.0392  -1.9703  -1.8829  -1.8554   5.5403   5.8682
     5.9785   6.3266   6.9085   6.9474   7.0528   7.0799   7.0963   7.1736
     7.1993   7.2274   7.3246   7.4170   7.6958   7.8081   7.9542   8.0099
     8.1148   8.1355   8.2070   8.2558   8.3907   8.4408   8.6532   8.7524
     8.7892   8.8703   9.1291   9.2213   9.3254   9.3650   9.4702   9.5614
     9.5981   9.7464   9.8020   9.8220   9.8845  10.0266  10.3464  10.4258
    10.9180  11.2293  11.3750  11.3813  11.4574  11.5015  11.5312  11.5993
    11.6813  11.7022  11.7378  11.7543  11.9246  12.1365  12.4238  12.9733
    13.1007  13.6463  13.7967  14.2059  14.6982  15.0874  15.1362  15.1637
    15.1780  15.2417  15.2739  15.3412  15.4074  15.4467  15.4728  15.4884
    15.4968  15.5173

          k = 0.3750 1.3768-0.7103 ( 15949 PWs)   bands (ev):

   -19.4510 -19.4199 -19.3360 -19.2972 -19.2386 -19.2281  -6.8678  -6.7748
    -6.6678  -6.3887  -6.1668  -6.0565  -5.9252  -5.7368  -5.5736  -5.5105
    -5.2366  -5.2040  -4.9482  -4.8713  -3.2099  -3.0989  -2.9898  -2.9588
    -2.9433  -2.8229  -2.7445  -2.7289  -2.6701  -2.6252  -2.4456  -2.3799
    -2.3123  -2.2970  -2.0408  -1.9702  -1.8840  -1.8559   5.5347   5.8599
     5.9815   6.3326   6.9118   6.9454   7.0492   7.0790   7.0971   7.1760
     7.2005   7.2297   7.3237   7.4171   7.6989   7.8050   7.9547   8.0106
     8.1180   8.1342   8.2057   8.2574   8.3895   8.4434   8.6577   8.7518
     8.7849   8.8720   9.1280   9.2243   9.3206   9.3671   9.4699   9.5651
     9.5931   9.7454   9.8058   9.8207   9.8814  10.0287  10.3424  10.4292
    10.9178  11.2256  11.3691  11.3742  11.4500  11.4994  11.5301  11.5994
    11.6869  11.7091  11.7442  11.7587  11.9319  12.1461  12.4198  12.9627
    13.0954  13.6485  13.7888  14.2145  14.6960  15.0847  15.1361  15.1651
    15.1769  15.2413  15.2716  15.3447  15.4089  15.4462  15.4730  15.4877
    15.4967  15.5149

          k = 0.3750 1.3768-0.2381 ( 15948 PWs)   bands (ev):

   -19.4747 -19.4054 -19.3645 -19.2874 -19.2277 -19.2189  -6.9054  -6.8284
    -6.4957  -6.3382  -6.0954  -5.9924  -5.6902  -5.4860  -5.4179  -5.3579
    -5.2648  -5.1865  -5.1348  -4.8474  -3.5268  -3.2520  -3.0883  -3.0128
    -2.9893  -2.9624  -2.7951  -2.7665  -2.7197  -2.6859  -2.5864  -2.5072
    -2.3458  -2.2155  -2.1744  -2.1381  -2.0035  -1.9027   5.2019   5.4740
     6.3201   6.7066   6.8259   6.9338   6.9433   7.0747   7.1475   7.1998
     7.2323   7.3110   7.3830   7.6110   7.8522   7.9614   7.9945   8.0980
     8.1424   8.3277   8.3866   8.5010   8.6186   8.6780   8.7610   8.8628
     8.9779   9.0392   9.1224   9.2412   9.4355   9.5710   9.5881   9.6868
     9.7820   9.9154   9.9874  10.0144  10.0454  10.1330  10.1920  10.4219
    10.9207  10.9934  11.0105  11.1075  11.4403  11.5018  11.5705  11.7175
    11.7440  11.8003  11.8472  11.8968  11.9695  12.0149  12.5543  12.6602
    13.2041  13.7913  14.1882  14.2825  14.3686  14.7940  15.1131  15.1338
    15.2364  15.2596  15.2774  15.2880  15.3234  15.3908  15.4183  15.4619
    15.4668  15.4813

          k = 0.3750-0.1039 0.2351 ( 15951 PWs)   bands (ev):

   -19.4937 -19.4032 -19.3691 -19.2955 -19.2187 -19.2037  -7.0440  -6.8032
    -6.3149  -6.2149  -6.1121  -5.9747  -5.5006  -5.4019  -5.3145  -5.2370
    -5.1868  -5.1780  -5.1214  -4.8612  -3.4986  -3.3821  -3.3027  -3.0381
    -2.9784  -2.9467  -2.9204  -2.8808  -2.7831  -2.7404  -2.6774  -2.6295
    -2.5616  -2.3481  -2.3157  -2.1509  -2.0692  -1.8203   4.8934   5.2481
     6.6160   6.7625   6.8290   6.8385   6.9906   7.0499   7.0856   7.1905
     7.2444   7.3984   7.6201   7.8551   7.8895   7.9818   8.0018   8.0095
     8.2226   8.5373   8.6168   8.7060   8.7865   8.8492   8.9314   9.0123
     9.0572   9.1107   9.1301   9.3665   9.5197   9.6338   9.7767   9.8919
     9.9549  10.0906  10.1428  10.1878  10.2264  10.3098  10.3734  10.4270
    10.5813  10.6295  10.9025  10.9129  11.4616  11.5564  11.5726  11.6879
    11.7854  11.7949  11.8286  11.9233  11.9912  12.0048  12.1313  12.7608
    12.8381  13.8051  14.0038  14.5717  14.7599  14.7800  15.0519  15.0583
    15.1801  15.2369  15.2643  15.2679  15.2779  15.3211  15.3950  15.4620
    15.4718  15.4846

          k = 0.3750-0.1039 0.7072 ( 15971 PWs)   bands (ev):

   -19.4596 -19.4149 -19.3454 -19.2981 -19.2386 -19.2213  -6.8304  -6.7525
    -6.6220  -6.4166  -5.9884  -5.7892  -5.6552  -5.6251  -5.5799  -5.4479
    -5.4125  -5.3545  -4.9761  -4.9504  -3.2838  -3.2462  -3.0492  -3.0274
    -2.9700  -2.8948  -2.8234  -2.7266  -2.6924  -2.6380  -2.5714  -2.4650
    -2.3989  -2.2921  -2.2014  -2.0483  -1.9262  -1.8663   5.4214   5.7570
     6.0817   6.4350   6.9835   6.9875   7.0614   7.0761   7.1696   7.1972
     7.2159   7.3417   7.4356   7.5146   7.8026   7.9553   7.9773   8.0325
     8.0637   8.0829   8.2319   8.2634   8.4640   8.4944   8.7020   8.7500
     8.8602   8.9537   9.1387   9.2610   9.3800   9.5098   9.5918   9.7404
     9.8594   9.8912   9.9423   9.9929  10.0608  10.1059  10.2212  10.2424
    11.1125  11.1369  11.1538  11.2290  11.4898  11.5170  11.5275  11.5595
    11.5956  11.7283  11.7396  11.7568  12.4361  12.6520  12.6726  12.7259
    13.3339  13.7663  13.8616  13.8860  14.4991  14.9286  15.0721  15.1352
    15.1784  15.1915  15.2809  15.2933  15.3909  15.4420  15.4539  15.4644
    15.4704  15.4857

          k = 0.3750-0.1039-0.7092 ( 15973 PWs)   bands (ev):

   -19.4595 -19.4150 -19.3455 -19.2980 -19.2385 -19.2214  -6.8288  -6.7542
    -6.6224  -6.4164  -5.9886  -5.7888  -5.6573  -5.6225  -5.5791  -5.4486
    -5.4125  -5.3540  -4.9772  -4.9501  -3.2815  -3.2463  -3.0488  -3.0294
    -2.9740  -2.8929  -2.8243  -2.7200  -2.6960  -2.6358  -2.5722  -2.4666
    -2.4016  -2.2914  -2.2013  -2.0470  -1.9264  -1.8656   5.4211   5.7572
     6.0829   6.4337   6.9839   6.9876   7.0597   7.0769   7.1697   7.1937
     7.2189   7.3421   7.4338   7.5194   7.7976   7.9562   7.9773   8.0319
     8.0655   8.0850   8.2248   8.2655   8.4597   8.4990   8.7017   8.7528
     8.8610   8.9537   9.1494   9.2538   9.3802   9.5046   9.5874   9.7369
     9.8639   9.8931   9.9450   9.9946  10.0600  10.1042  10.2183  10.2457
    11.1127  11.1360  11.1541  11.2298  11.4898  11.5162  11.5264  11.5631
    11.5939  11.7285  11.7378  11.7580  12.4362  12.6521  12.6724  12.7255
    13.3338  13.7665  13.8620  13.8858  14.4989  14.9284  15.0723  15.1349
    15.1765  15.1932  15.2796  15.2945  15.3908  15.4421  15.4535  15.4639
    15.4699  15.4848

          k = 0.3750-0.1039-0.2370 ( 15961 PWs)   bands (ev):

   -19.4937 -19.4033 -19.3691 -19.2954 -19.2186 -19.2038  -7.0440  -6.8032
    -6.3143  -6.2150  -6.1132  -5.9745  -5.5008  -5.4008  -5.3158  -5.2363
    -5.1872  -5.1787  -5.1198  -4.8613  -3.4977  -3.3835  -3.3012  -3.0393
    -2.9783  -2.9463  -2.9218  -2.8805  -2.7833  -2.7407  -2.6765  -2.6305
    -2.5615  -2.3489  -2.3150  -2.1500  -2.0694  -1.8198   4.8935   5.2480
     6.6170   6.7626   6.8289   6.8382   6.9902   7.0495   7.0846   7.1906
     7.2437   7.3998   7.6203   7.8571   7.8889   7.9815   8.0014   8.0092
     8.2223   8.5364   8.6157   8.7042   8.7874   8.8508   8.9332   9.0106
     9.0579   9.1103   9.1287   9.3678   9.5196   9.6363   9.7771   9.8904
     9.9547  10.0902  10.1472  10.1881  10.2220  10.3098  10.3711  10.4280
    10.5810  10.6298  10.9042  10.9123  11.4618  11.5562  11.5726  11.6879
    11.7855  11.7958  11.8278  11.9232  11.9906  12.0054  12.1313  12.7606
    12.8381  13.8044  14.0042  14.5716  14.7601  14.7797  15.0510  15.0586
    15.1801  15.2389  15.2630  15.2692  15.2776  15.3193  15.3965  15.4625
    15.4713  15.4851

          k = 0.3750 0.3897 0.2347 ( 15931 PWs)   bands (ev):

   -19.4799 -19.4015 -19.3568 -19.2926 -19.2315 -19.2163  -6.9498  -6.7754
    -6.5218  -6.2803  -6.0939  -6.0123  -5.7304  -5.4279  -5.4106  -5.3648
    -5.2924  -5.2052  -5.1050  -4.9093  -3.4740  -3.2939  -3.0529  -2.9842
    -2.9598  -2.9114  -2.8439  -2.7928  -2.7272  -2.6273  -2.5992  -2.4681
    -2.4086  -2.3356  -2.2158  -2.0606  -1.9971  -1.8834   5.1821   5.4985
     6.3665   6.6956   6.8363   6.9265   6.9525   7.0745   7.1425   7.1897
     7.2461   7.3188   7.4197   7.5789   7.7795   7.9386   7.9990   8.0454
     8.1143   8.2840   8.4358   8.4953   8.5542   8.7018   8.8271   8.8752
     9.0048   9.0463   9.1564   9.2966   9.3832   9.5471   9.6270   9.6849
     9.7548   9.9110   9.9869  10.0062  10.0502  10.1530  10.2779  10.4029
    10.8465  10.9959  11.0137  11.0952  11.4703  11.5350  11.5693  11.7160
    11.7557  11.7824  11.8333  11.8832  11.9608  12.0130  12.4775  12.6823
    13.2700  13.7797  14.2241  14.2736  14.3742  14.8400  15.0816  15.1193
    15.2131  15.2485  15.2721  15.3067  15.3319  15.4139  15.4307  15.4589
    15.4671  15.4763

          k = 0.3750 0.3897 0.7068 ( 15970 PWs)   bands (ev):

   -19.4541 -19.4201 -19.3287 -19.2967 -19.2409 -19.2304  -6.8586  -6.7570
    -6.6877  -6.4620  -6.1252  -6.0475  -5.9087  -5.6779  -5.5619  -5.5278
    -5.2168  -5.1832  -4.9963  -4.9473  -3.2627  -3.0176  -2.9988  -2.9397
    -2.8849  -2.8265  -2.7851  -2.7416  -2.6683  -2.5838  -2.4985  -2.4538
    -2.2759  -2.2358  -2.0263  -1.9457  -1.9095  -1.8919   5.5499   5.8421
     6.0198   6.3155   6.9054   6.9485   7.0562   7.0785   7.1033   7.1765
     7.2145   7.2374   7.2887   7.3957   7.5973   7.8412   7.9168   7.9977
     8.0595   8.1353   8.1984   8.2473   8.3999   8.4322   8.7548   8.8288
     8.8512   8.9551   9.0749   9.1996   9.3238   9.4048   9.4897   9.5381
     9.5965   9.6866   9.7595   9.8244   9.9174  10.0839  10.3326  10.4040
    10.8725  11.2163  11.3675  11.3942  11.4471  11.5152  11.5389  11.6177
    11.6811  11.7173  11.7387  11.7537  11.9104  12.1465  12.3978  12.9587
    13.0388  13.6470  13.8482  14.2338  14.7182  15.0865  15.1315  15.1570
    15.1952  15.2508  15.2820  15.3405  15.4022  15.4407  15.4680  15.4829
    15.4921  15.5079

          k = 0.3750 0.3897-0.7095 ( 15950 PWs)   bands (ev):

   -19.4534 -19.4208 -19.3285 -19.2965 -19.2410 -19.2307  -6.8578  -6.7538
    -6.6896  -6.4625  -6.1297  -6.0439  -5.9125  -5.6741  -5.5596  -5.5285
    -5.2136  -5.1863  -4.9992  -4.9457  -3.2617  -3.0209  -3.0031  -2.9395
    -2.8847  -2.8236  -2.7856  -2.7423  -2.6745  -2.5786  -2.5003  -2.4531
    -2.2749  -2.2331  -2.0261  -1.9459  -1.9097  -1.8905   5.5556   5.8502
     6.0175   6.3087   6.9030   6.9497   7.0584   7.0780   7.1060   7.1707
     7.2175   7.2344   7.2896   7.3955   7.5931   7.8428   7.9169   8.0025
     8.0600   8.1317   8.1958   8.2444   8.3979   8.4303   8.7543   8.8292
     8.8555   8.9580   9.0774   9.1987   9.3268   9.4005   9.4860   9.5401
     9.5955   9.6902   9.7527   9.8228   9.9213  10.0859  10.3360  10.4009
    10.8732  11.2194  11.3754  11.4003  11.4545  11.5169  11.5402  11.6188
    11.6739  11.7114  11.7309  11.7499  11.9038  12.1366  12.4011  12.9688
    13.0444  13.6447  13.8564  14.2254  14.7203  15.0885  15.1323  15.1576
    15.1943  15.2524  15.2846  15.3351  15.4011  15.4413  15.4681  15.4823
    15.4926  15.5081

          k = 0.3750 0.3897-0.2374 ( 15937 PWs)   bands (ev):

   -19.4796 -19.4017 -19.3567 -19.2924 -19.2316 -19.2165  -6.9491  -6.7757
    -6.5191  -6.2783  -6.0978  -6.0169  -5.7291  -5.4247  -5.4081  -5.3643
    -5.2911  -5.2085  -5.1064  -4.9084  -3.4746  -3.2938  -3.0523  -2.9881
    -2.9604  -2.9133  -2.8484  -2.7926  -2.7281  -2.6283  -2.5985  -2.4647
    -2.4047  -2.3337  -2.2143  -2.0614  -1.9976  -1.8832   5.1850   5.5019
     6.3675   6.6940   6.8357   6.9254   6.9536   7.0719   7.1410   7.1879
     7.2444   7.3197   7.4187   7.5850   7.7765   7.9426   8.0018   8.0395
     8.1127   8.2832   8.4370   8.4957   8.5511   8.7029   8.8285   8.8732
     9.0049   9.0476   9.1550   9.2890   9.3827   9.5482   9.6288   9.6845
     9.7544   9.9115   9.9869  10.0137  10.0522  10.1546  10.2781  10.3962
    10.8454  10.9986  11.0225  11.0990  11.4707  11.5352  11.5750  11.7111
    11.7500  11.7810  11.8337  11.8819  11.9540  12.0045  12.4823  12.6828
    13.2758  13.7886  14.2248  14.2738  14.3675  14.8427  15.0805  15.1210
    15.2141  15.2484  15.2725  15.3042  15.3317  15.4182  15.4309  15.4567
    15.4656  15.4772

     the Fermi energy is    12.6503 ev

!    total energy              =   -1621.12350933 Ry
     Harris-Foulkes estimate   =   -1621.12350933 Ry
     estimated scf accuracy    <          7.3E-09 Ry

     The total energy is the sum of the following terms:

     one-electron contribution =    -243.00273997 Ry
     hartree contribution      =     292.30044480 Ry
     xc contribution           =    -718.05468794 Ry
     ewald contribution        =    -952.36231647 Ry
     smearing contrib. (-TS)   =      -0.00420975 Ry

     convergence has been achieved in  23 iterations

     Forces acting on atoms (cartesian axes, Ry/au):

     atom    1 type  1   force =     0.01673875   -0.00687279   -0.00656955
     atom    2 type  1   force =    -0.01642264    0.00670286   -0.00632786
     atom    3 type  1   force =     0.00687039   -0.00242926   -0.00766737
     atom    4 type  1   force =    -0.00701040    0.00245695   -0.00745516
     atom    5 type  1   force =     0.00572700   -0.00065796    0.00187458
     atom    6 type  1   force =    -0.00610864    0.00065179    0.00246265
     atom    7 type  2   force =    -0.00167340    0.00093873   -0.00239642
     atom    8 type  2   force =     0.00113971    0.00194707   -0.00202979
     atom    9 type  2   force =    -0.00372803    0.00155445    0.00008314
     atom   10 type  2   force =     0.00431078    0.00150014    0.00037039
     atom   11 type  3   force =    -0.00041156   -0.00083108    0.00591299
     atom   12 type  3   force =     0.00003399   -0.00005394    0.00599527
     atom   13 type  3   force =    -0.00076170   -0.00233500    0.00079893
     atom   14 type  3   force =     0.00032583    0.00175220    0.00136921
     atom   15 type  3   force =     0.00066522   -0.00081069   -0.00071032
     atom   16 type  3   force =    -0.00117237   -0.00093727    0.00137781
     atom   17 type  3   force =    -0.00059955   -0.00097019    0.00286205
     atom   18 type  3   force =     0.00031848   -0.00077366    0.00520236
     atom   19 type  3   force =     0.01701670   -0.00127822   -0.00140056
     atom   20 type  3   force =    -0.01734693    0.00134059   -0.00103895
     atom   21 type  3   force =     0.00302412    0.00304041    0.00443694
     atom   22 type  3   force =    -0.00012172   -0.00409574    0.00475938
     atom   23 type  3   force =     0.01008867   -0.00745634   -0.00098283
     atom   24 type  3   force =    -0.01090271    0.00761696   -0.00092688

     Total force =     0.047132     Total SCF correction =     0.000207


     Computing stress (Cartesian axis) and pressure

          total   stress  (Ry/bohr**3)                   (kbar)     P= -108.09
  -0.00064418  -0.00005026  -0.00001420        -94.76     -7.39     -2.09
  -0.00005026  -0.00073993  -0.00000582         -7.39   -108.85     -0.86
  -0.00001420  -0.00000582  -0.00082017         -2.09     -0.86   -120.65


     BFGS Geometry Optimization

     number of scf cycles    =   1
     number of bfgs steps    =   0

     enthalpy new            =   -1621.1235093287 Ry

     new trust radius        =       0.1849139433 bohr
     new conv_thr            =       0.0000000100 Ry

     new unit-cell volume =   1922.58484 a.u.^3 (   284.89768 Ang^3 )
     density =      7.53164 g/cm^3

CELL_PARAMETERS (alat= 19.64219137)
   0.983895596  -0.001256398  -0.000355086
  -0.846469597   0.498220789   0.000231515
   0.001263651   0.000308699   0.518665858

ATOMIC_POSITIONS (crystal)
La       0.563995670   0.924433688   0.263998374
La       0.436205401   0.075725198   0.764201611
La       0.920381450   0.569684403   0.262852824
La       0.079673935   0.430253514   0.762973227
La       0.749247326   0.757544726   0.229460231
La       0.250488817   0.242259329   0.729576770
Ni       0.345439415   0.152376534   0.248979597
Ni       0.654381686   0.847518858   0.748964847
Ni       0.152920504   0.345901236   0.249617993
Ni       0.846830014   0.654030755   0.749545611
O        0.099721014   0.898959022   0.998478501
O        0.899787833   0.100805129   0.498326413
O        0.893481292   0.094756243   0.005926813
O        0.107043711   0.905359016   0.506331642
O        0.591340963   0.405694569   0.501121707
O        0.409109041   0.594724689   0.001012469
O        0.408385053   0.593291269   0.497545171
O        0.591525290   0.406867847   0.997090178
O        0.465957174   0.066422628   0.247095344
O        0.534198907   0.933568824   0.747750110
O        0.777398762   0.778246267   0.746616587
O        0.222672913   0.222340968   0.246777589
O        0.932988532   0.529488615   0.747875506
O        0.066991297   0.469962672   0.247910886



     Writing output data file La3Ni2O7.save
     NEW-OLD atomic charge density approx. for the potential

     Check: negative/imaginary core charge=   -0.000345    0.000000
     extrapolated charge  179.14073, renormalised to  190.00000

     total cpu time spent up to now is      562.9 secs

     Self-consistent Calculation

     iteration #  1     ecut=    60.00 Ry     beta= 0.70
     Davidson diagonalization with overlap
     c_bands:  5 eigenvalues not converged
     c_bands:  3 eigenvalues not converged
     c_bands:  2 eigenvalues not converged
     c_bands:  3 eigenvalues not converged
     c_bands:  2 eigenvalues not converged
     c_bands:  2 eigenvalues not converged
     c_bands:  3 eigenvalues not converged
     c_bands:  2 eigenvalues not converged
     c_bands:  2 eigenvalues not converged
     c_bands:  2 eigenvalues not converged
     c_bands:  2 eigenvalues not converged
     c_bands:  2 eigenvalues not converged
     c_bands:  2 eigenvalues not converged
     c_bands:  2 eigenvalues not converged
     ethr =  1.00E-06,  avg # of iterations = 19.3

     total cpu time spent up to now is      639.5 secs

     total energy              =   -1580.22682472 Ry
     Harris-Foulkes estimate   =   -1639.83566979 Ry
     estimated scf accuracy    <      41.66480297 Ry

     iteration #  2     ecut=    60.00 Ry     beta= 0.70
     Davidson diagonalization with overlap
     ethr =  1.00E-02,  avg # of iterations =  8.0

     total cpu time spent up to now is      690.0 secs

     total energy              =   -1513.20114852 Ry
     Harris-Foulkes estimate   =   -1904.32017524 Ry
     estimated scf accuracy    <    3374.01722902 Ry

     iteration #  3     ecut=    60.00 Ry     beta= 0.70
     Davidson diagonalization with overlap
     ethr =  1.00E-02,  avg # of iterations = 11.0

     total cpu time spent up to now is      744.7 secs

     total energy              =   -1606.32596631 Ry
     Harris-Foulkes estimate   =   -1672.06968827 Ry
     estimated scf accuracy    <     526.94494016 Ry

     iteration #  4     ecut=    60.00 Ry     beta= 0.70
     Davidson diagonalization with overlap
     ethr =  1.00E-02,  avg # of iterations =  4.2

     total cpu time spent up to now is      767.4 secs

     total energy              =   -1616.48303349 Ry
     Harris-Foulkes estimate   =   -1634.71845736 Ry
     estimated scf accuracy    <     160.93057746 Ry

     iteration #  5     ecut=    60.00 Ry     beta= 0.70
     Davidson diagonalization with overlap
     ethr =  1.00E-02,  avg # of iterations =  3.0

     total cpu time spent up to now is      785.9 secs

     total energy              =   -1618.81352805 Ry
     Harris-Foulkes estimate   =   -1629.29440414 Ry
     estimated scf accuracy    <     115.30190686 Ry

     iteration #  6     ecut=    60.00 Ry     beta= 0.70
     Davidson diagonalization with overlap
     ethr =  1.00E-02,  avg # of iterations =  2.9

     total cpu time spent up to now is      802.2 secs

     total energy              =   -1621.56253838 Ry
     Harris-Foulkes estimate   =   -1623.66154012 Ry
     estimated scf accuracy    <      11.41179968 Ry

     iteration #  7     ecut=    60.00 Ry     beta= 0.70
     Davidson diagonalization with overlap
     ethr =  6.01E-03,  avg # of iterations =  1.2

     total cpu time spent up to now is      815.6 secs

     total energy              =   -1621.90560660 Ry
     Harris-Foulkes estimate   =   -1622.25734781 Ry
     estimated scf accuracy    <       7.37076094 Ry

     iteration #  8     ecut=    60.00 Ry     beta= 0.70
     Davidson diagonalization with overlap
     ethr =  3.88E-03,  avg # of iterations =  1.0

     total cpu time spent up to now is      828.9 secs

     total energy              =   -1621.56830660 Ry
     Harris-Foulkes estimate   =   -1622.30208448 Ry
     estimated scf accuracy    <      19.29836557 Ry

     iteration #  9     ecut=    60.00 Ry     beta= 0.70
     Davidson diagonalization with overlap
     ethr =  3.88E-03,  avg # of iterations =  1.0

     total cpu time spent up to now is      842.3 secs

     total energy              =   -1621.80608905 Ry
     Harris-Foulkes estimate   =   -1621.92828799 Ry
     estimated scf accuracy    <       6.16224981 Ry

     iteration # 10     ecut=    60.00 Ry     beta= 0.70
     Davidson diagonalization with overlap
     ethr =  3.24E-03,  avg # of iterations =  1.0

     total cpu time spent up to now is      855.4 secs

     total energy              =   -1620.84611276 Ry
     Harris-Foulkes estimate   =   -1621.86683769 Ry
     estimated scf accuracy    <       4.93939556 Ry

     iteration # 11     ecut=    60.00 Ry     beta= 0.70
     Davidson diagonalization with overlap
     ethr =  2.60E-03,  avg # of iterations =  7.3

     total cpu time spent up to now is      876.3 secs

     total energy              =   -1621.19552062 Ry
     Harris-Foulkes estimate   =   -1621.29829287 Ry
     estimated scf accuracy    <       1.18090923 Ry

     iteration # 12     ecut=    60.00 Ry     beta= 0.70
     Davidson diagonalization with overlap
     ethr =  6.22E-04,  avg # of iterations =  7.1

     total cpu time spent up to now is      897.9 secs

     total energy              =   -1621.18031606 Ry
     Harris-Foulkes estimate   =   -1621.25174991 Ry
     estimated scf accuracy    <       0.58518866 Ry

     iteration # 13     ecut=    60.00 Ry     beta= 0.70
     Davidson diagonalization with overlap
     ethr =  3.08E-04,  avg # of iterations =  9.8

     total cpu time spent up to now is      920.4 secs

     total energy              =   -1621.14251982 Ry
     Harris-Foulkes estimate   =   -1621.21676540 Ry
     estimated scf accuracy    <       0.27660993 Ry

     iteration # 14     ecut=    60.00 Ry     beta= 0.70
     Davidson diagonalization with overlap
     ethr =  1.46E-04,  avg # of iterations = 10.0

     total cpu time spent up to now is      948.0 secs

     total energy              =   -1621.16907248 Ry
     Harris-Foulkes estimate   =   -1621.17775388 Ry
     estimated scf accuracy    <       0.05106620 Ry

     iteration # 15     ecut=    60.00 Ry     beta= 0.70
     Davidson diagonalization with overlap
     c_bands:  2 eigenvalues not converged
     c_bands:  1 eigenvalues not converged
     c_bands:  1 eigenvalues not converged
     c_bands:  2 eigenvalues not converged
     c_bands:  1 eigenvalues not converged
     c_bands:  1 eigenvalues not converged
     c_bands:  1 eigenvalues not converged
     c_bands:  1 eigenvalues not converged
     c_bands:  3 eigenvalues not converged
     ethr =  2.69E-05,  avg # of iterations = 18.2

     total cpu time spent up to now is      997.6 secs

     total energy              =   -1621.17034401 Ry
     Harris-Foulkes estimate   =   -1621.17604528 Ry
     estimated scf accuracy    <       0.01429434 Ry

     iteration # 16     ecut=    60.00 Ry     beta= 0.70
     Davidson diagonalization with overlap
     c_bands:  2 eigenvalues not converged
     c_bands:  1 eigenvalues not converged
     c_bands:  5 eigenvalues not converged
     c_bands:  5 eigenvalues not converged
     c_bands:  4 eigenvalues not converged
     c_bands:  1 eigenvalues not converged
     c_bands:  3 eigenvalues not converged
     c_bands:  2 eigenvalues not converged
     c_bands:  4 eigenvalues not converged
     c_bands:  4 eigenvalues not converged
     c_bands:  4 eigenvalues not converged
     c_bands:  1 eigenvalues not converged
     c_bands:  5 eigenvalues not converged
     c_bands:  5 eigenvalues not converged
     c_bands:  2 eigenvalues not converged
     c_bands:  1 eigenvalues not converged
     c_bands:  1 eigenvalues not converged
     c_bands:  5 eigenvalues not converged
     c_bands:  3 eigenvalues not converged
     ethr =  7.52E-06,  avg # of iterations = 14.6

     total cpu time spent up to now is     1036.7 secs

     total energy              =   -1621.16804222 Ry
     Harris-Foulkes estimate   =   -1621.17706148 Ry
     estimated scf accuracy    <       0.04690951 Ry

     iteration # 17     ecut=    60.00 Ry     beta= 0.70
     Davidson diagonalization with overlap
     c_bands:  1 eigenvalues not converged
     c_bands:  1 eigenvalues not converged
     c_bands:  1 eigenvalues not converged
     c_bands:  1 eigenvalues not converged
     ethr =  7.52E-06,  avg # of iterations =  6.1

     total cpu time spent up to now is     1055.8 secs

     total energy              =   -1621.16922229 Ry
     Harris-Foulkes estimate   =   -1621.17789542 Ry
     estimated scf accuracy    <       0.09351534 Ry

     iteration # 18     ecut=    60.00 Ry     beta= 0.70
     Davidson diagonalization with overlap
     ethr =  7.52E-06,  avg # of iterations =  3.2

     total cpu time spent up to now is     1073.3 secs

     total energy              =   -1621.16295512 Ry
     Harris-Foulkes estimate   =   -1621.18545094 Ry
     estimated scf accuracy    <       0.35781424 Ry

     iteration # 19     ecut=    60.00 Ry     beta= 0.70
     Davidson diagonalization with overlap
     ethr =  7.52E-06,  avg # of iterations =  2.1

     total cpu time spent up to now is     1088.1 secs

     total energy              =   -1621.17372944 Ry
     Harris-Foulkes estimate   =   -1621.17389137 Ry
     estimated scf accuracy    <       0.00044282 Ry

     iteration # 20     ecut=    60.00 Ry     beta= 0.70
     Davidson diagonalization with overlap
     c_bands:  1 eigenvalues not converged
     c_bands:  2 eigenvalues not converged
     c_bands:  1 eigenvalues not converged
     c_bands:  2 eigenvalues not converged
     c_bands:  1 eigenvalues not converged
     c_bands:  1 eigenvalues not converged
     c_bands:  1 eigenvalues not converged
     c_bands:  2 eigenvalues not converged
     c_bands:  1 eigenvalues not converged
     c_bands:  1 eigenvalues not converged
     c_bands:  2 eigenvalues not converged
     c_bands:  1 eigenvalues not converged
     c_bands:  1 eigenvalues not converged
     c_bands:  1 eigenvalues not converged
     c_bands:  1 eigenvalues not converged
     c_bands:  2 eigenvalues not converged
     c_bands:  2 eigenvalues not converged
     c_bands:  2 eigenvalues not converged
     c_bands:  1 eigenvalues not converged
     c_bands:  1 eigenvalues not converged
     c_bands:  1 eigenvalues not converged
     ethr =  2.33E-07,  avg # of iterations = 19.2

     total cpu time spent up to now is     1145.8 secs

     total energy              =   -1621.17333177 Ry
     Harris-Foulkes estimate   =   -1621.17450412 Ry
     estimated scf accuracy    <       0.01756841 Ry

     iteration # 21     ecut=    60.00 Ry     beta= 0.70
     Davidson diagonalization with overlap
     ethr =  2.33E-07,  avg # of iterations =  2.8

     total cpu time spent up to now is     1162.7 secs

     total energy              =   -1621.17389349 Ry
     Harris-Foulkes estimate   =   -1621.17395444 Ry
     estimated scf accuracy    <       0.00021121 Ry

     iteration # 22     ecut=    60.00 Ry     beta= 0.70
     Davidson diagonalization with overlap
     ethr =  1.11E-07,  avg # of iterations =  2.0

     total cpu time spent up to now is     1178.9 secs

     total energy              =   -1621.17392063 Ry
     Harris-Foulkes estimate   =   -1621.17393049 Ry
     estimated scf accuracy    <       0.00003098 Ry

     iteration # 23     ecut=    60.00 Ry     beta= 0.70
     Davidson diagonalization with overlap
     c_bands:  1 eigenvalues not converged
     ethr =  1.63E-08,  avg # of iterations =  4.7

     total cpu time spent up to now is     1200.3 secs

     total energy              =   -1621.17392617 Ry
     Harris-Foulkes estimate   =   -1621.17393104 Ry
     estimated scf accuracy    <       0.00001645 Ry

     iteration # 24     ecut=    60.00 Ry     beta= 0.70
     Davidson diagonalization with overlap
     ethr =  8.66E-09,  avg # of iterations =  2.1

     total cpu time spent up to now is     1216.5 secs

     total energy              =   -1621.17392852 Ry
     Harris-Foulkes estimate   =   -1621.17392926 Ry
     estimated scf accuracy    <       0.00000172 Ry

     iteration # 25     ecut=    60.00 Ry     beta= 0.70
     Davidson diagonalization with overlap
     ethr =  9.06E-10,  avg # of iterations =  5.1

     total cpu time spent up to now is     1240.3 secs

     total energy              =   -1621.17392894 Ry
     Harris-Foulkes estimate   =   -1621.17392951 Ry
     estimated scf accuracy    <       0.00000169 Ry

     iteration # 26     ecut=    60.00 Ry     beta= 0.70
     Davidson diagonalization with overlap
     ethr =  8.87E-10,  avg # of iterations =  2.0

     total cpu time spent up to now is     1256.4 secs

     total energy              =   -1621.17392918 Ry
     Harris-Foulkes estimate   =   -1621.17392922 Ry
     estimated scf accuracy    <       0.00000016 Ry

     iteration # 27     ecut=    60.00 Ry     beta= 0.70
     Davidson diagonalization with overlap
     ethr =  8.24E-11,  avg # of iterations =  4.0

     total cpu time spent up to now is     1276.8 secs

     total energy              =   -1621.17392913 Ry
     Harris-Foulkes estimate   =   -1621.17392929 Ry
     estimated scf accuracy    <       0.00000147 Ry

     iteration # 28     ecut=    60.00 Ry     beta= 0.70
     Davidson diagonalization with overlap
     ethr =  8.24E-11,  avg # of iterations =  2.7

     total cpu time spent up to now is     1292.5 secs

     total energy              =   -1621.17392915 Ry
     Harris-Foulkes estimate   =   -1621.17392929 Ry
     estimated scf accuracy    <       0.00000180 Ry

     iteration # 29     ecut=    60.00 Ry     beta= 0.70
     Davidson diagonalization with overlap
     ethr =  8.24E-11,  avg # of iterations =  2.0

     total cpu time spent up to now is     1307.3 secs

     total energy              =   -1621.17392922 Ry
     Harris-Foulkes estimate   =   -1621.17392923 Ry
     estimated scf accuracy    <       0.00000012 Ry

     iteration # 30     ecut=    60.00 Ry     beta= 0.70
     Davidson diagonalization with overlap
     ethr =  6.32E-11,  avg # of iterations =  1.7

     total cpu time spent up to now is     1321.3 secs

     total energy              =   -1621.17392922 Ry
     Harris-Foulkes estimate   =   -1621.17392923 Ry
     estimated scf accuracy    <       0.00000014 Ry

     iteration # 31     ecut=    60.00 Ry     beta= 0.70
     Davidson diagonalization with overlap
     ethr =  6.32E-11,  avg # of iterations =  1.0

     total cpu time spent up to now is     1334.5 secs

     total energy              =   -1621.17392922 Ry
     Harris-Foulkes estimate   =   -1621.17392922 Ry
     estimated scf accuracy    <       0.00000001 Ry

     iteration # 32     ecut=    60.00 Ry     beta= 0.70
     Davidson diagonalization with overlap
     ethr =  6.21E-12,  avg # of iterations =  2.1

     total cpu time spent up to now is     1348.7 secs

     End of self-consistent calculation

          k = 0.1277 0.4678 0.2404 ( 15937 PWs)   bands (ev):

   -18.4045 -18.2862 -18.2352 -18.1706 -18.1046 -18.0763  -6.4400  -6.1796
    -5.9819  -5.6348  -5.4924  -5.4147  -5.0800  -4.8067  -4.7369  -4.6806
    -4.5815  -4.5283  -4.4384  -4.2402  -2.4216  -2.3682  -2.0865  -1.9201
    -1.8600  -1.8207  -1.7791  -1.6873  -1.5947  -1.5738  -1.4821  -1.4110
    -1.3389  -1.2727  -1.1638  -0.8939  -0.8385  -0.7012   5.7217   6.0657
     7.0544   7.2875   7.4794   7.5083   7.5352   7.6873   7.7556   7.8451
     7.8658   8.0481   8.1617   8.2846   8.3984   8.6284   8.7151   8.7520
     8.7784   8.9916   9.0812   9.1754   9.2832   9.4520   9.6167   9.7313
     9.7781   9.8517   9.9587   9.9930  10.1948  10.3182  10.3669  10.5205
    10.6352  10.6981  10.7494  10.8007  10.8888  10.9918  11.1606  11.2105
    11.5975  11.8519  11.8655  11.9686  12.3601  12.4476  12.4843  12.6370
    12.6700  12.6900  12.7698  12.8567  12.9011  12.9947  13.4005  13.7114
    14.3789  14.8345  15.2460  15.4010  15.5121  15.9889  16.1196  16.1789
    16.3249  16.3601  16.3911  16.4490  16.5062  16.5938  16.6179  16.6305
    16.6437  16.6552

          k = 0.1279 0.4679 0.7224 ( 15963 PWs)   bands (ev):

   -18.3666 -18.3170 -18.1947 -18.1607 -18.1179 -18.1088  -6.2894  -6.1993
    -6.1669  -5.9825  -5.3988  -5.3931  -5.3223  -5.0846  -4.9017  -4.8015
    -4.4998  -4.4806  -4.3694  -4.3260  -2.2970  -1.9970  -1.9320  -1.8895
    -1.8150  -1.6611  -1.6380  -1.6308  -1.5708  -1.5275  -1.4853  -1.4223
    -1.0687  -1.0248  -0.8648  -0.8136  -0.7927  -0.7528   6.1395   6.3739
     6.6656   6.8652   7.5406   7.5653   7.6651   7.6963   7.7261   7.8182
     7.8717   7.8774   7.9262   7.9867   8.2233   8.5458   8.5779   8.6371
     8.7873   8.8316   8.8641   8.9093   9.1440   9.1799   9.5995   9.6039
     9.7610   9.8144   9.8934   9.9266   9.9745  10.0829  10.2468  10.3428
    10.3767  10.4001  10.5833  10.6531  10.7444  11.0148  11.1121  11.1827
    11.6532  12.0754  12.2667  12.2933  12.3635  12.3956  12.4439  12.5286
    12.6024  12.6460  12.6594  12.6742  12.8481  13.1470  13.3656  14.0041
    14.0295  14.7352  14.9811  15.3517  15.7984  16.2073  16.2266  16.2645
    16.3443  16.3976  16.4209  16.4631  16.5538  16.6018  16.6357  16.6484
    16.6537  16.6705

          k = 0.1274 0.4676-0.7236 ( 15959 PWs)   bands (ev):

   -18.3660 -18.3176 -18.1944 -18.1604 -18.1183 -18.1090  -6.2884  -6.1996
    -6.1662  -5.9829  -5.3999  -5.3937  -5.3230  -5.0818  -4.9025  -4.8004
    -4.5007  -4.4805  -4.3711  -4.3245  -2.2964  -1.9968  -1.9314  -1.8908
    -1.8167  -1.6604  -1.6437  -1.6318  -1.5691  -1.5264  -1.4852  -1.4220
    -1.0663  -1.0262  -0.8650  -0.8103  -0.7932  -0.7534   6.1433   6.3798
     6.6640   6.8605   7.5395   7.5654   7.6670   7.6967   7.7270   7.8150
     7.8710   7.8772   7.9264   7.9878   8.2211   8.5456   8.5811   8.6360
     8.7865   8.8287   8.8617   8.9105   9.1450   9.1777   9.5960   9.6113
     9.7607   9.8165   9.8934   9.9239   9.9747  10.0829  10.2449  10.3425
    10.3760  10.3995  10.5851  10.6556  10.7445  11.0139  11.1137  11.1818
    11.6528  12.0779  12.2725  12.2981  12.3686  12.3952  12.4457  12.5294
    12.5977  12.6411  12.6549  12.6719  12.8428  13.1394  13.3682  14.0079
    14.0359  14.7340  14.9869  15.3461  15.8008  16.2080  16.2266  16.2638
[...]

   -18.3909 -18.2977 -18.2578 -18.1522 -18.0936 -18.0851  -6.3754  -6.2672
    -5.9326  -5.7528  -5.4893  -5.3800  -4.9969  -4.8407  -4.7551  -4.6888
    -4.5991  -4.5100  -4.4279  -4.1482  -2.5774  -2.2685  -2.0894  -1.9649
    -1.9411  -1.9053  -1.7301  -1.7038  -1.6387  -1.6136  -1.4845  -1.3983
    -1.1984  -1.0943  -1.0480  -1.0172  -0.8450  -0.7633   5.7552   6.0270
     6.9268   7.3331   7.4440   7.5104   7.5328   7.6966   7.7800   7.8555
     7.8762   7.9824   8.0506   8.3499   8.5769   8.6527   8.7334   8.8310
     8.8533   9.0306   9.0755   9.2477   9.3592   9.3881   9.4771   9.6395
     9.7624   9.8188   9.8920   9.9795  10.2105  10.3738  10.4160  10.4647
    10.5929  10.7182  10.8000  10.8330  10.8696  10.9488  11.0137  11.2145
    11.7556  11.8447  11.8705  11.9719  12.3075  12.3741  12.4836  12.6417
    12.6687  12.7435  12.7804  12.8492  12.9269  12.9919  13.5642  13.6659
    14.2429  14.8730  15.1661  15.4189  15.4939  15.8404  16.2290  16.2495
    16.3476  16.3893  16.4114  16.4239  16.4638  16.5330  16.5999  16.6288
    16.6347  16.6521

          k = 0.3832 1.4034 0.7212 ( 15946 PWs)   bands (ev):

   -18.3580 -18.3167 -18.2186 -18.1610 -18.1132 -18.0983  -6.3263  -6.2355
    -6.1194  -5.8153  -5.5597  -5.4275  -5.3019  -5.1058  -4.9312  -4.8526
    -4.5417  -4.5128  -4.2566  -4.1779  -2.2039  -2.0856  -1.9406  -1.9021
    -1.8825  -1.7295  -1.6560  -1.6380  -1.5856  -1.5243  -1.3389  -1.2697
    -1.1973  -1.1754  -0.8965  -0.8250  -0.7120  -0.6786   6.1005   6.4291
     6.5600   6.9149   7.5283   7.5742   7.6590   7.6978   7.7140   7.7954
     7.8288   7.8683   7.9973   8.0633   8.3799   8.5188   8.6305   8.7250
     8.8439   8.8626   8.9273   8.9641   9.1025   9.1449   9.3706   9.5021
     9.5271   9.6229   9.9175   9.9918  10.0795  10.1232  10.2428  10.3546
    10.3971  10.5390  10.5967  10.6282  10.6757  10.8337  11.1641  11.2469
    11.7524  12.1032  12.2597  12.2682  12.3523  12.3839  12.4119  12.4994
    12.6003  12.6289  12.6631  12.6846  12.8935  13.1403  13.4153  14.0216
    14.1482  14.7413  14.8596  15.3036  15.7431  16.1792  16.2556  16.2877
    16.3010  16.3643  16.4013  16.4818  16.5576  16.6089  16.6402  16.6586
    16.6679  16.6956

          k = 0.3827 1.4032-0.7248 ( 15949 PWs)   bands (ev):

   -18.3585 -18.3162 -18.2190 -18.1609 -18.1133 -18.0979  -6.3262  -6.2366
    -6.1199  -5.8154  -5.5576  -5.4286  -5.3005  -5.1067  -4.9301  -4.8545
    -4.5439  -4.5101  -4.2560  -4.1790  -2.2040  -2.0855  -1.9386  -1.9029
    -1.8813  -1.7287  -1.6534  -1.6410  -1.5863  -1.5231  -1.3391  -1.2694
    -1.1952  -1.1765  -0.8977  -0.8253  -0.7129  -0.6792   6.0968   6.4229
     6.5618   6.9190   7.5317   7.5728   7.6559   7.6970   7.7147   7.7974
     7.8298   7.8700   7.9960   8.0629   8.3831   8.5163   8.6317   8.7246
     8.8463   8.8616   8.9256   8.9659   9.1039   9.1448   9.3731   9.5025
     9.5226   9.6240   9.9158   9.9956  10.0739  10.1262  10.2427  10.3570
    10.3941  10.5376  10.6004  10.6261  10.6743  10.8357  11.1629  11.2479
    11.7521  12.1008  12.2560  12.2633  12.3473  12.3821  12.4108  12.4991
    12.6045  12.6335  12.6670  12.6878  12.8990  13.1478  13.4127  14.0140
    14.1447  14.7426  14.8543  15.3092  15.7413  16.1763  16.2560  16.2883
    16.3004  16.3643  16.3995  16.4850  16.5589  16.6087  16.6404  16.6579
    16.6679  16.6929

          k = 0.3828 1.4032-0.2428 ( 15948 PWs)   bands (ev):

   -18.3911 -18.2976 -18.2578 -18.1524 -18.0934 -18.0850  -6.3757  -6.2673
    -5.9345  -5.7529  -5.4867  -5.3786  -4.9982  -4.8422  -4.7558  -4.6895
    -4.5997  -4.5077  -4.4272  -4.1489  -2.5770  -2.2674  -2.0906  -1.9652
    -1.9391  -1.9054  -1.7303  -1.7040  -1.6366  -1.6126  -1.4848  -1.3964
    -1.2006  -1.0936  -1.0501  -1.0175  -0.8460  -0.7629   5.7532   6.0244
     6.9265   7.3332   7.4435   7.5117   7.5319   7.6982   7.7815   7.8554
     7.8789   7.9818   8.0521   8.3446   8.5779   8.6511   8.7372   8.8322
     8.8531   9.0300   9.0757   9.2479   9.3586   9.3882   9.4787   9.6407
     9.7620   9.8171   9.8939   9.9803  10.2110  10.3718  10.4152  10.4693
    10.5878  10.7181  10.8011  10.8355  10.8680  10.9452  11.0131  11.2173
    11.7550  11.8417  11.8671  11.9696  12.3070  12.3744  12.4794  12.6446
    12.6732  12.7435  12.7797  12.8505  12.9331  12.9986  13.5602  13.6652
    14.2388  14.8675  15.1653  15.4187  15.4980  15.8373  16.2289  16.2495
    16.3471  16.3893  16.4120  16.4243  16.4651  16.5323  16.5974  16.6305
    16.6349  16.6523

          k = 0.3811-0.1053 0.2401 ( 15951 PWs)   bands (ev):

   -18.4171 -18.3032 -18.2562 -18.1667 -18.0817 -18.0598  -6.5241  -6.2370
    -5.7281  -5.6237  -5.5067  -5.3655  -4.7727  -4.7022  -4.6635  -4.5811
    -4.5256  -4.5058  -4.4309  -4.1515  -2.5524  -2.4362  -2.3337  -2.0047
    -1.9134  -1.9027  -1.8687  -1.8245  -1.6960  -1.6616  -1.6065  -1.5427
    -1.4664  -1.2578  -1.2004  -1.0223  -0.9152  -0.6687   5.4221   5.7870
     7.2474   7.3852   7.3896   7.4151   7.6150   7.7132   7.7404   7.8553
     7.8912   8.0995   8.3245   8.6069   8.6117   8.6605   8.7187   8.7731
     8.8858   9.2829   9.3379   9.4328   9.5173   9.6411   9.6713   9.7548
     9.8534   9.8887   9.9419  10.1163  10.3330  10.4517  10.6063  10.7110
    10.7671  10.8957  10.9617  10.9989  11.0547  11.1185  11.1954  11.2563
    11.3890  11.4545  11.7353  11.7461  12.3482  12.4241  12.5160  12.6181
    12.7193  12.7278  12.7706  12.8816  12.9485  12.9701  13.1074  13.7762
    13.8668  14.7366  15.0716  15.5917  15.9250  15.9566  16.1150  16.1915
    16.3004  16.3333  16.3964  16.4108  16.4553  16.4723  16.5224  16.6300
    16.6407  16.6570

          k = 0.3813-0.1053 0.7221 ( 15971 PWs)   bands (ev):

   -18.3706 -18.3095 -18.2329 -18.1619 -18.1155 -18.0861  -6.2816  -6.1957
    -6.0625  -5.8407  -5.3811  -5.1640  -4.9840  -4.9330  -4.9234  -4.8045
    -4.7693  -4.7016  -4.2788  -4.2542  -2.2970  -2.2598  -2.0121  -1.9947
    -1.9283  -1.8222  -1.7634  -1.6537  -1.6255  -1.5617  -1.4644  -1.3760
    -1.2871  -1.1285  -1.0755  -0.9274  -0.7494  -0.6828   5.9881   6.3286
     6.6824   7.0515   7.5633   7.5734   7.6682   7.7143   7.8011   7.8207
     7.8655   8.0049   8.1273   8.2119   8.5169   8.6793   8.7112   8.7193
     8.7712   8.7818   8.9330   8.9498   9.2116   9.2406   9.4889   9.5179
     9.5944   9.7255   9.8932  10.0274  10.1213  10.2613  10.3487  10.5019
    10.6696  10.6989  10.7308  10.8159  10.8966  10.9455  11.0384  11.0508
    11.9775  11.9957  12.0267  12.1108  12.3711  12.3977  12.4323  12.4666
    12.5075  12.6465  12.6656  12.6916  13.4277  13.6630  13.6977  13.7491
    14.3733  14.8230  14.9731  14.9978  15.5162  15.9902  16.1770  16.2609
    16.2923  16.3109  16.3967  16.4294  16.5311  16.6035  16.6217  16.6295
    16.6380  16.6541

          k = 0.3807-0.1055-0.7239 ( 15973 PWs)   bands (ev):

   -18.3705 -18.3096 -18.2330 -18.1617 -18.1154 -18.0862  -6.2803  -6.1970
    -6.0628  -5.8405  -5.3813  -5.1636  -4.9845  -4.9341  -4.9208  -4.8049
    -4.7693  -4.7013  -4.2796  -4.2541  -2.2955  -2.2590  -2.0115  -1.9972
    -1.9326  -1.8201  -1.7636  -1.6488  -1.6270  -1.5605  -1.4649  -1.3777
    -1.2897  -1.1277  -1.0756  -0.9263  -0.7495  -0.6821   5.9878   6.3289
     6.6835   7.0504   7.5634   7.5735   7.6676   7.7145   7.8013   7.8187
     7.8671   8.0053   8.1259   8.2156   8.5118   8.6841   8.7104   8.7170
     8.7720   8.7834   8.9276   8.9507   9.2084   9.2455   9.4888   9.5190
     9.5949   9.7257   9.9018  10.0215  10.1219  10.2567  10.3448  10.4995
    10.6723  10.7018  10.7327  10.8166  10.8959  10.9445  11.0362  11.0534
    11.9780  11.9949  12.0267  12.1115  12.3713  12.3972  12.4310  12.4691
    12.5067  12.6464  12.6646  12.6924  13.4279  13.6629  13.6977  13.7488
    14.3731  14.8234  14.9733  14.9977  15.5161  15.9901  16.1771  16.2607
    16.2896  16.3135  16.3963  16.4299  16.5312  16.6034  16.6212  16.6298
    16.6384  16.6530

          k = 0.3809-0.1054-0.2419 ( 15961 PWs)   bands (ev):

   -18.4171 -18.3033 -18.2562 -18.1667 -18.0816 -18.0599  -6.5241  -6.2370
    -5.7277  -5.6237  -5.5074  -5.3653  -4.7728  -4.7018  -4.6639  -4.5810
    -4.5262  -4.5058  -4.4298  -4.1516  -2.5515  -2.4373  -2.3325  -2.0061
    -1.9138  -1.9033  -1.8686  -1.8246  -1.6962  -1.6608  -1.6058  -1.5432
    -1.4673  -1.2585  -1.1995  -1.0215  -0.9152  -0.6684   5.4222   5.7869
     7.2483   7.3853   7.3901   7.4142   7.6146   7.7150   7.7376   7.8555
     7.8908   8.1003   8.3245   8.6067   8.6132   8.6591   8.7197   8.7723
     8.8858   9.2844   9.3349   9.4315   9.5179   9.6421   9.6729   9.7538
     9.8532   9.8879   9.9415  10.1175  10.3333  10.4535  10.6062  10.7097
    10.7668  10.8948  10.9652  10.9998  11.0521  11.1188  11.1925  11.2574
    11.3888  11.4547  11.7370  11.7456  12.3484  12.4239  12.5159  12.6181
    12.7192  12.7288  12.7697  12.8816  12.9480  12.9706  13.1074  13.7760
    13.8668  14.7361  15.0720  15.5916  15.9252  15.9563  16.1141  16.1916
    16.3002  16.3348  16.3962  16.4111  16.4554  16.4709  16.5237  16.6301
    16.6406  16.6571

          k = 0.3817 0.3976 0.2398 ( 15931 PWs)   bands (ev):

   -18.3983 -18.2918 -18.2466 -18.1614 -18.0992 -18.0799  -6.4137  -6.2195
    -5.9613  -5.6919  -5.4861  -5.3984  -5.0572  -4.7705  -4.7552  -4.6777
    -4.6307  -4.5263  -4.4030  -4.2123  -2.5183  -2.3132  -2.0419  -1.9537
    -1.9082  -1.8448  -1.7878  -1.7083  -1.6431  -1.5365  -1.5192  -1.3595
    -1.2914  -1.2205  -1.0941  -0.9303  -0.8401  -0.7328   5.7309   6.0515
     6.9775   7.3263   7.4520   7.5036   7.5462   7.6939   7.7772   7.8464
     7.8827   8.0034   8.0909   8.3036   8.5034   8.6349   8.7304   8.7753
     8.8266   8.9794   9.1153   9.2182   9.3280   9.4265   9.5926   9.6119
     9.7812   9.8138   9.9015  10.0743  10.1552  10.3549  10.4267  10.4946
    10.5508  10.7233  10.7967  10.8228  10.8663  10.9516  11.1047  11.2159
    11.6727  11.8460  11.8681  11.9577  12.3415  12.4127  12.4790  12.6434
    12.6863  12.7243  12.7666  12.8319  12.9188  12.9971  13.4747  13.6901
    14.3171  14.8524  15.2066  15.4083  15.5058  15.8959  16.1623  16.2352
    16.3375  16.3760  16.3938  16.4486  16.4789  16.5679  16.6052  16.6269
    16.6374  16.6456

          k = 0.3819 0.3976 0.7218 ( 15970 PWs)   bands (ev):

   -18.3627 -18.3167 -18.2075 -18.1599 -18.1163 -18.1026  -6.3151  -6.2172
    -6.1429  -5.8925  -5.5129  -5.4212  -5.2827  -5.0430  -4.9137  -4.8723
    -4.5267  -4.4891  -4.3069  -4.2584  -2.2657  -1.9904  -1.9530  -1.8742
    -1.8287  -1.7508  -1.6973  -1.6505  -1.5688  -1.4819  -1.3948  -1.3460
    -1.1560  -1.1067  -0.8767  -0.7983  -0.7448  -0.7233   6.1132   6.4039
     6.6034   6.9031   7.5237   7.5694   7.6658   7.7006   7.7242   7.8057
     7.8426   7.8738   7.9450   8.0484   8.2900   8.5422   8.5967   8.7008
     8.7737   8.8646   8.9017   8.9464   9.1288   9.1424   9.4861   9.5614
     9.5954   9.7187   9.8438   9.9612  10.0828  10.1863  10.2843  10.3347
    10.4048  10.4773  10.5510  10.6111  10.7177  10.8904  11.1478  11.2227
    11.7021  12.0898  12.2557  12.2854  12.3426  12.3955  12.4271  12.5186
    12.6007  12.6420  12.6632  12.6791  12.8708  13.1492  13.3876  14.0098
    14.0832  14.7422  14.9207  15.3301  15.7676  16.1836  16.2513  16.2764
    16.3177  16.3812  16.4091  16.4804  16.5519  16.6020  16.6345  16.6533
    16.6631  16.6796

          k = 0.3814 0.3974-0.7242 ( 15950 PWs)   bands (ev):

   -18.3621 -18.3172 -18.2073 -18.1597 -18.1161 -18.1032  -6.3140  -6.2153
    -6.1442  -5.8936  -5.5159  -5.4186  -5.2852  -5.0404  -4.9117  -4.8727
    -4.5240  -4.4915  -4.3092  -4.2572  -2.2645  -1.9934  -1.9564  -1.8739
    -1.8286  -1.7485  -1.6981  -1.6509  -1.5732  -1.4779  -1.3960  -1.3455
    -1.1563  -1.1044  -0.8768  -0.7983  -0.7447  -0.7219   6.1170   6.4099
     6.6023   6.8982   7.5212   7.5701   7.6675   7.6997   7.7265   7.8015
     7.8445   7.8719   7.9463   8.0492   8.2860   8.5437   8.5973   8.7026
     8.7753   8.8622   8.8971   8.9456   9.1267   9.1414   9.4857   9.5666
     9.5953   9.7218   9.8469   9.9595  10.0842  10.1833  10.2813  10.3359
    10.4038  10.4790  10.5465  10.6102  10.7200  10.8929  11.1490  11.2211
    11.7031  12.0917  12.2614  12.2890  12.3472  12.3971  12.4283  12.5197
    12.5956  12.6386  12.6575  12.6768  12.8658  13.1415  13.3896  14.0171
    14.0871  14.7409  14.9262  15.3247  15.7692  16.1858  16.2518  16.2768
    16.3168  16.3823  16.4113  16.4755  16.5511  16.6023  16.6344  16.6529
    16.6635  16.6795

          k = 0.3816 0.3975-0.2422 ( 15937 PWs)   bands (ev):

   -18.3980 -18.2920 -18.2466 -18.1612 -18.0993 -18.0802  -6.4131  -6.2197
    -5.9597  -5.6910  -5.4883  -5.4015  -5.0568  -4.7684  -4.7530  -4.6775
    -4.6290  -4.5288  -4.4042  -4.2114  -2.5187  -2.3128  -2.0415  -1.9574
    -1.9086  -1.8459  -1.7919  -1.7084  -1.6436  -1.5386  -1.5174  -1.3568
    -1.2885  -1.2188  -1.0929  -0.9311  -0.8404  -0.7325   5.7329   6.0540
     6.9786   7.3253   7.4520   7.5019   7.5474   7.6921   7.7760   7.8463
     7.8801   8.0041   8.0895   8.3083   8.5006   8.6380   8.7343   8.7701
     8.8254   8.9778   9.1176   9.2186   9.3251   9.4262   9.5925   9.6132
     9.7806   9.8156   9.9011  10.0692  10.1545  10.3560  10.4276  10.4933
    10.5520  10.7234  10.7959  10.8283  10.8678  10.9525  11.1051  11.2108
    11.6720  11.8477  11.8750  11.9599  12.3418  12.4122  12.4832  12.6402
    12.6825  12.7241  12.7670  12.8311  12.9132  12.9905  13.4780  13.6902
    14.3211  14.8581  15.2072  15.4085  15.5018  15.8983  16.1615  16.2365
    16.3392  16.3738  16.3949  16.4467  16.4787  16.5693  16.6075  16.6260
    16.6353  16.6465

     the Fermi energy is    13.6627 ev

!    total energy              =   -1621.17392922 Ry
     Harris-Foulkes estimate   =   -1621.17392922 Ry
     estimated scf accuracy    <          1.1E-09 Ry

     The total energy is the sum of the following terms:

     one-electron contribution =    -218.28208470 Ry
     hartree contribution      =     286.40840846 Ry
     xc contribution           =    -719.12979022 Ry
     ewald contribution        =    -970.16651918 Ry
     smearing contrib. (-TS)   =      -0.00394359 Ry

     convergence has been achieved in  32 iterations

     Forces acting on atoms (cartesian axes, Ry/au):

     atom    1 type  1   force =     0.00360729   -0.00199796   -0.01006323
     atom    2 type  1   force =    -0.00347615    0.00184057   -0.01015660
     atom    3 type  1   force =     0.02010328   -0.00522911   -0.01075010
     atom    4 type  1   force =    -0.02026457    0.00527216   -0.01046567
     atom    5 type  1   force =     0.01144211   -0.00569578    0.00833705
     atom    6 type  1   force =    -0.01157150    0.00585582    0.00861732
     atom    7 type  2   force =     0.00508499   -0.00060249   -0.00058333
     atom    8 type  2   force =    -0.00551103    0.00207375   -0.00045027
     atom    9 type  2   force =    -0.00864332    0.00285106   -0.00006091
     atom   10 type  2   force =     0.00909379   -0.00139198    0.00008190
     atom   11 type  3   force =    -0.00694907    0.00033118    0.00547044
     atom   12 type  3   force =     0.00688974   -0.00064131    0.00513727
     atom   13 type  3   force =     0.00505704   -0.00325240    0.00026897
     atom   14 type  3   force =    -0.00529792    0.00324090    0.00029574
     atom   15 type  3   force =    -0.00399906    0.00102797   -0.00096370
     atom   16 type  3   force =     0.00369658   -0.00219908    0.00034712
     atom   17 type  3   force =     0.00458387   -0.00255133    0.00325558
     atom   18 type  3   force =    -0.00463554    0.00153701    0.00482422
     atom   19 type  3   force =     0.01424655   -0.00289536    0.00068116
     atom   20 type  3   force =    -0.01468163    0.00300712    0.00092136
     atom   21 type  3   force =     0.00237929   -0.00128947    0.00152673
     atom   22 type  3   force =    -0.00015600    0.00037647    0.00185781
     atom   23 type  3   force =     0.01052442   -0.00414827    0.00089340
     atom   24 type  3   force =    -0.01152315    0.00448056    0.00097776

     Total force =     0.055844     Total SCF correction =     0.000104


     Computing stress (Cartesian axis) and pressure

          total   stress  (Ry/bohr**3)                   (kbar)     P=  -14.07
  -0.00001116  -0.00003932  -0.00001180         -1.64     -5.78     -1.74
  -0.00003932  -0.00009549  -0.00000440         -5.78    -14.05     -0.65
  -0.00001180  -0.00000440  -0.00018025         -1.74     -0.65    -26.52


     number of scf cycles    =   2
     number of bfgs steps    =   1

     enthalpy old            =   -1621.1235093287 Ry
     enthalpy new            =   -1621.1739292231 Ry

     CASE: enthalpy_new < enthalpy_old

     new trust radius        =       0.0555184003 bohr
     new conv_thr            =       0.0000000020 Ry

     new unit-cell volume =   1901.08617 a.u.^3 (   281.71190 Ang^3 )
     density =      7.61681 g/cm^3

CELL_PARAMETERS (alat= 19.64219137)
   0.982754383  -0.002440799  -0.000710265
  -0.846088262   0.497382793   0.000469079
   0.001073545   0.000234716   0.515387938

ATOMIC_POSITIONS (crystal)
La       0.564024678   0.924166039   0.262846243
La       0.436174147   0.075975762   0.763040500
La       0.921055273   0.569060544   0.261618260
La       0.079000650   0.430884823   0.761772809
La       0.749362408   0.756874834   0.230396747
La       0.250376389   0.242946082   0.730548098
Ni       0.345679370   0.152310436   0.248902724
Ni       0.654275574   0.847771460   0.748904963
Ni       0.152692719   0.346242848   0.249611925
Ni       0.847245493   0.653874834   0.749556199
O        0.099337476   0.898993803   0.999116523
O        0.900128880   0.100728512   0.498927223
O        0.893441903   0.094364350   0.005960515
O        0.107063837   0.905746545   0.506371435
O        0.591206147   0.405810931   0.501011130
O        0.409099854   0.594462947   0.001057748
O        0.408393524   0.592987856   0.497921339
O        0.591401464   0.407043207   0.997652690
O        0.466547059   0.066076375   0.247163733
O        0.533593520   0.933928333   0.747848071
O        0.777430977   0.778111040   0.746808186
O        0.222682440   0.222363633   0.247007686
O        0.933187787   0.528965124   0.747969733
O        0.066764430   0.470525682   0.248015521



     Writing output data file La3Ni2O7.save
     NEW-OLD atomic charge density approx. for the potential

     Check: negative/imaginary core charge=   -0.000329    0.000000
     extrapolated charge  187.85317, renormalised to  190.00000

     total cpu time spent up to now is     1372.3 secs

     Self-consistent Calculation

     iteration #  1     ecut=    60.00 Ry     beta= 0.70
     Davidson diagonalization with overlap
     c_bands:  3 eigenvalues not converged
     c_bands:  2 eigenvalues not converged
     c_bands:  2 eigenvalues not converged
     c_bands:  3 eigenvalues not converged
     c_bands:  2 eigenvalues not converged
     c_bands:  3 eigenvalues not converged
     c_bands:  1 eigenvalues not converged
     c_bands:  4 eigenvalues not converged
     c_bands:  3 eigenvalues not converged
     c_bands:  2 eigenvalues not converged
     c_bands:  5 eigenvalues not converged
     c_bands:  4 eigenvalues not converged
     c_bands:  2 eigenvalues not converged
     c_bands:  3 eigenvalues not converged
     c_bands:  4 eigenvalues not converged
     c_bands:  2 eigenvalues not converged
     c_bands:  2 eigenvalues not converged
     c_bands:  4 eigenvalues not converged
     c_bands:  3 eigenvalues not converged
     c_bands:  3 eigenvalues not converged
     c_bands:  5 eigenvalues not converged
     c_bands:  4 eigenvalues not converged
     c_bands:  3 eigenvalues not converged
     c_bands:  4 eigenvalues not converged
     c_bands:  4 eigenvalues not converged
     c_bands:  4 eigenvalues not converged
     c_bands:  3 eigenvalues not converged
[mpiexec@rice-a375.rcac.purdue.edu] Sending Ctrl-C to processes as requested
[mpiexec@rice-a375.rcac.purdue.edu] Press Ctrl-C again to force abort
