
     Program PWSCF v.6.2 (svn rev. 14038) starts on  1Jul2019 at 10:47:19 

     This program is part of the open-source Quantum ESPRESSO suite
     for quantum simulation of materials; please cite
         "P. Giannozzi et al., J. Phys.:Condens. Matter 21 395502 (2009);
         "P. Giannozzi et al., J. Phys.:Condens. Matter 29 465901 (2017);
          URL http://www.quantum-espresso.org", 
     in publications or presentations arising from this work. More details at
     http://www.quantum-espresso.org/quote

     Parallel version (MPI & OpenMP), running on      20 processor cores
     Number of MPI processes:                20
     Threads/MPI process:                     1

     MPI processes distributed on     1 nodes
     R & G space division:  proc/nbgrp/npool/nimage =      20
     Reading input from La4Ni3O10.in

     Current dimensions of program PWSCF are:
     Max number of different atomic species (ntypx) = 10
     Max number of k-points (npk) =  40000
     Max angular momentum in pseudopotentials (lmaxx) =  3
               file La.pz-spfn-rrkjus_psl.1.0.0.UPF: wavefunction(s)  4F renormalized
               file Ni.pz-n-rrkjus_psl.0.1.UPF: wavefunction(s)  3D renormalized

     Subspace diagonalization in iterative solution of the eigenvalue problem:
     one sub-group per band group will be used
     scalapack distributed-memory algorithm (size of sub-group:  3*  3 procs)

 
     Parallelization info
     --------------------
     sticks:   dense  smooth     PW     G-vecs:    dense   smooth      PW
     Min         246     246     70                 9261     9261    1402
     Max         247     247     71                 9263     9263    1404
     Sum        4933    4933   1413               185233   185233   28049
 


     bravais-lattice index     =           14
     lattice parameter (alat)  =      26.2392  a.u.
     unit-cell volume          =    2949.6028 (a.u.)^3
     number of atoms/cell      =           34
     number of atomic types    =            3
     number of electrons       =       268.00
     number of Kohn-Sham states=          161
     kinetic-energy cutoff     =      60.0000  Ry
     charge density cutoff     =     240.0000  Ry
     convergence threshold     =      1.0E-08
     mixing beta               =       0.7000
     number of iterations used =            8  plain     mixing
     Exchange-correlation      = LDA ( 1  1  0  0 0 0)
     nstep                     =          300


     celldm(1)=  26.239225  celldm(2)=   0.999114  celldm(3)=   0.435204
     celldm(4)=   0.000405  celldm(5)=  -0.001815  celldm(6)=  -0.926824

     crystal axes: (cart. coord. in units of alat)
               a(1) = (   1.000000   0.000000   0.000000 )  
               a(2) = (  -0.926003   0.375163   0.000000 )  
               a(3) = (  -0.000790  -0.001481   0.435201 )  

     reciprocal axes: (cart. coord. in units 2 pi/alat)
               b(1) = (  1.000000  2.468266  0.010212 )  
               b(2) = (  0.000000  2.665505  0.009068 )  
               b(3) = (  0.000000  0.000000  2.297788 )  


     PseudoPot. # 1 for La read from file:
     ./La.pz-spfn-rrkjus_psl.1.0.0.UPF
     MD5 check sum: e4cc26dd351bb2aa33b11ee919d4576a
     Pseudo is Ultrasoft + core correction, Zval = 11.0
     Generated using "atomic" code by A. Dal Corso v.6.2.2
     Using radial grid of 1253 points,  8 beta functions with: 
                l(1) =   0
                l(2) =   0
                l(3) =   1
                l(4) =   1
                l(5) =   2
                l(6) =   2
                l(7) =   3
                l(8) =   3
     Q(r) pseudized with 0 coefficients 


     PseudoPot. # 2 for Ni read from file:
     ./Ni.pz-n-rrkjus_psl.0.1.UPF
     MD5 check sum: 4def80e42349afdd14834ce81d852c61
     Pseudo is Ultrasoft + core correction, Zval = 10.0
     Generated using "atomic" code by A. Dal Corso v.5.0.2 svn rev. 9415
     Using radial grid of 1195 points,  6 beta functions with: 
                l(1) =   0
                l(2) =   0
                l(3) =   1
                l(4) =   1
                l(5) =   2
                l(6) =   2
     Q(r) pseudized with 0 coefficients 


     PseudoPot. # 3 for O  read from file:
     ./O.pz-n-rrkjus_psl.0.1.UPF
     MD5 check sum: 6e384d5705d3ad042f52b90450e69d34
     Pseudo is Ultrasoft + core correction, Zval =  6.0
     Generated using "atomic" code by A. Dal Corso v.5.0.2 svn rev. 9415
     Using radial grid of 1095 points,  4 beta functions with: 
                l(1) =   0
                l(2) =   0
                l(3) =   1
                l(4) =   1
     Q(r) pseudized with 0 coefficients 


     atomic species   valence    mass     pseudopotential
        La            11.00   138.90550     La( 1.00)
        Ni            10.00    58.69340     Ni( 1.00)
        O              6.00    15.99940     O ( 1.00)

     No symmetry found



   Cartesian axes

     site n.     atom                  positions (alat units)
         1           La  tau(   1) = (   0.8669212   0.0259176   0.2278887  )
         2           La  tau(   2) = (  -0.7937658   0.3477576   0.2073646  )
         3           La  tau(   3) = (   0.1697990   0.1593876   0.4269628  )
         4           La  tau(   4) = (  -0.0966397   0.2143066   0.0082209  )
         5           La  tau(   5) = (   0.6192441   0.0737284   0.2080392  )
         6           La  tau(   6) = (  -0.5459508   0.2999356   0.2271837  )
         7           La  tau(   7) = (   0.4167321   0.1117902   0.4259705  )
         8           La  tau(   8) = (  -0.3434557   0.2618891   0.0091871  )
         9           Ni  tau(   9) = (   0.0365390   0.1868188   0.2176397  )
        10           Ni  tau(  10) = (  -0.0007292  -0.0014767   0.4351837  )
        11           Ni  tau(  11) = (   0.3045372   0.1343836   0.2172350  )
        12           Ni  tau(  12) = (  -0.2314043   0.2393291   0.2180140  )
        13           Ni  tau(  13) = (   0.7308714   0.0509490   0.4350662  )
        14           Ni  tau(  14) = (  -0.6576729   0.3227412   0.0001828  )
        15           O   tau(  15) = (   0.0781574   0.2763778   0.3279328  )
        16           O   tau(  16) = (   0.0315186   0.2857574   0.1171387  )
        17           O   tau(  17) = (  -0.0050341   0.0972862   0.1073250  )
        18           O   tau(  18) = (   0.0415891   0.0879290   0.3181233  )
        19           O   tau(  19) = (   0.1718916   0.1613176   0.1805345  )
        20           O   tau(  20) = (  -0.0986395   0.2123395   0.2545143  )
        21           O   tau(  21) = (   0.8644956   0.0245319   0.4047414  )
        22           O   tau(  22) = (  -0.7912764   0.3491621   0.0305032  )
        23           O   tau(  23) = (   0.3091653   0.2303141   0.3249342  )
        24           O   tau(  24) = (  -0.1993812   0.3307850   0.1092877  )
        25           O   tau(  25) = (  -0.2361215   0.1434026   0.1102365  )
        26           O   tau(  26) = (   0.2724534   0.0429241   0.3259439  )
        27           O   tau(  27) = (   0.4470185   0.1066661   0.2449138  )
        28           O   tau(  28) = (  -0.3737179   0.2670353   0.1903570  )
        29           O   tau(  29) = (   0.5894929   0.0799722   0.0268693  )
        30           O   tau(  30) = (  -0.5162973   0.2937033   0.4082927  )
        31           O   tau(  31) = (   0.3436014   0.2249837   0.1086088  )
        32           O   tau(  32) = (  -0.2333949   0.3370390   0.3254043  )
        33           O   tau(  33) = (  -0.2701772   0.1486844   0.3265227  )
        34           O   tau(  34) = (   0.3068561   0.0366139   0.1097708  )

     number of k points=    32  gaussian smearing, width (Ry)=  0.0100
                       cart. coord. in units 2pi/alat
        k(    1) = (   0.1250000   0.6417214   0.2896335), wk =   0.0625000
        k(    2) = (   0.1250000   0.6417214   0.8640805), wk =   0.0625000
        k(    3) = (   0.1250000   0.6417214  -0.8592605), wk =   0.0625000
        k(    4) = (   0.1250000   0.6417214  -0.2848135), wk =   0.0625000
        k(    5) = (   0.1250000   1.3080977   0.2919004), wk =   0.0625000
        k(    6) = (   0.1250000   1.3080977   0.8663474), wk =   0.0625000
        k(    7) = (   0.1250000   1.3080977  -0.8569936), wk =   0.0625000
        k(    8) = (   0.1250000   1.3080977  -0.2825466), wk =   0.0625000
        k(    9) = (   0.1250000  -0.6910312   0.2850996), wk =   0.0625000
        k(   10) = (   0.1250000  -0.6910312   0.8595466), wk =   0.0625000
        k(   11) = (   0.1250000  -0.6910312  -0.8637944), wk =   0.0625000
        k(   12) = (   0.1250000  -0.6910312  -0.2893474), wk =   0.0625000
        k(   13) = (   0.1250000  -0.0246549   0.2873665), wk =   0.0625000
        k(   14) = (   0.1250000  -0.0246549   0.8618135), wk =   0.0625000
        k(   15) = (   0.1250000  -0.0246549  -0.8615275), wk =   0.0625000
        k(   16) = (   0.1250000  -0.0246549  -0.2870805), wk =   0.0625000
        k(   17) = (   0.3750000   1.2587878   0.2921865), wk =   0.0625000
        k(   18) = (   0.3750000   1.2587878   0.8666335), wk =   0.0625000
        k(   19) = (   0.3750000   1.2587878  -0.8567075), wk =   0.0625000
        k(   20) = (   0.3750000   1.2587878  -0.2822605), wk =   0.0625000
        k(   21) = (   0.3750000   1.9251641   0.2944534), wk =   0.0625000
        k(   22) = (   0.3750000   1.9251641   0.8689005), wk =   0.0625000
        k(   23) = (   0.3750000   1.9251641  -0.8544406), wk =   0.0625000
        k(   24) = (   0.3750000   1.9251641  -0.2799936), wk =   0.0625000
        k(   25) = (   0.3750000  -0.0739648   0.2876526), wk =   0.0625000
        k(   26) = (   0.3750000  -0.0739648   0.8620996), wk =   0.0625000
        k(   27) = (   0.3750000  -0.0739648  -0.8612414), wk =   0.0625000
        k(   28) = (   0.3750000  -0.0739648  -0.2867944), wk =   0.0625000
        k(   29) = (   0.3750000   0.5924115   0.2899195), wk =   0.0625000
        k(   30) = (   0.3750000   0.5924115   0.8643665), wk =   0.0625000
        k(   31) = (   0.3750000   0.5924115  -0.8589745), wk =   0.0625000
        k(   32) = (   0.3750000   0.5924115  -0.2845275), wk =   0.0625000

     Dense  grid:   185233 G-vectors     FFT dimensions: ( 135, 135,  60)

     Estimated max dynamical RAM per process >     278.96 MB

     Estimated total dynamical RAM >       5.45 GB

     Check: negative/imaginary core charge=   -0.000429    0.000000

     Initial potential from superposition of free atoms

     starting charge  267.78666, renormalised to  268.00000
     Starting wfc are  294 randomized atomic wfcs

     total cpu time spent up to now is       29.8 secs

     Self-consistent Calculation

     iteration #  1     ecut=    60.00 Ry     beta= 0.70
     Davidson diagonalization with overlap
     ethr =  1.00E-02,  avg # of iterations =  2.0

     total cpu time spent up to now is       88.9 secs

     total energy              =   -2268.29357491 Ry
     Harris-Foulkes estimate   =   -2274.40392478 Ry
     estimated scf accuracy    <       7.74177363 Ry

     iteration #  2     ecut=    60.00 Ry     beta= 0.70
     Davidson diagonalization with overlap
     ethr =  2.89E-03,  avg # of iterations =  7.0

     total cpu time spent up to now is      187.6 secs

     total energy              =   -2251.00312512 Ry
     Harris-Foulkes estimate   =   -2283.80271003 Ry
     estimated scf accuracy    <     197.31760171 Ry

     iteration #  3     ecut=    60.00 Ry     beta= 0.70
     Davidson diagonalization with overlap
     ethr =  2.89E-03,  avg # of iterations =  9.0

     total cpu time spent up to now is      303.5 secs

     total energy              =   -2234.21343220 Ry
     Harris-Foulkes estimate   =   -2300.92507855 Ry
     estimated scf accuracy    <    1967.34086514 Ry

     iteration #  4     ecut=    60.00 Ry     beta= 0.70
     Davidson diagonalization with overlap
     ethr =  2.89E-03,  avg # of iterations =  7.1

     total cpu time spent up to now is      393.0 secs

     total energy              =   -2271.42220487 Ry
     Harris-Foulkes estimate   =   -2275.16032788 Ry
     estimated scf accuracy    <      13.76754094 Ry

     iteration #  5     ecut=    60.00 Ry     beta= 0.70
     Davidson diagonalization with overlap
     ethr =  2.89E-03,  avg # of iterations =  3.0

     total cpu time spent up to now is      437.4 secs

     total energy              =   -2271.42729005 Ry
     Harris-Foulkes estimate   =   -2273.83552548 Ry
     estimated scf accuracy    <      44.40415645 Ry

     iteration #  6     ecut=    60.00 Ry     beta= 0.70
     Davidson diagonalization with overlap
     ethr =  2.89E-03,  avg # of iterations =  1.0

     total cpu time spent up to now is      475.6 secs

     total energy              =   -2272.21266605 Ry
     Harris-Foulkes estimate   =   -2273.53866762 Ry
     estimated scf accuracy    <      11.25269812 Ry

     iteration #  7     ecut=    60.00 Ry     beta= 0.70
     Davidson diagonalization with overlap
     ethr =  2.89E-03,  avg # of iterations =  2.0

     total cpu time spent up to now is      515.6 secs

     total energy              =   -2272.12985901 Ry
     Harris-Foulkes estimate   =   -2274.08506325 Ry
     estimated scf accuracy    <      22.18423083 Ry

     iteration #  8     ecut=    60.00 Ry     beta= 0.70
     Davidson diagonalization with overlap
     ethr =  2.89E-03,  avg # of iterations =  1.2

     total cpu time spent up to now is      554.1 secs

     total energy              =   -2272.38220449 Ry
     Harris-Foulkes estimate   =   -2273.72611686 Ry
     estimated scf accuracy    <      14.80365271 Ry

     iteration #  9     ecut=    60.00 Ry     beta= 0.70
     Davidson diagonalization with overlap
     ethr =  2.89E-03,  avg # of iterations =  1.0

     total cpu time spent up to now is      592.6 secs

     total energy              =   -2272.93414434 Ry
     Harris-Foulkes estimate   =   -2273.09255628 Ry
     estimated scf accuracy    <       1.92412643 Ry

     iteration # 10     ecut=    60.00 Ry     beta= 0.70
     Davidson diagonalization with overlap
     ethr =  7.18E-04,  avg # of iterations =  1.0

     total cpu time spent up to now is      630.7 secs

     total energy              =   -2272.84037558 Ry
     Harris-Foulkes estimate   =   -2273.04391009 Ry
     estimated scf accuracy    <       1.44594799 Ry

     iteration # 11     ecut=    60.00 Ry     beta= 0.70
     Davidson diagonalization with overlap
     ethr =  5.40E-04,  avg # of iterations =  2.0

     total cpu time spent up to now is      670.7 secs

     total energy              =   -2272.49425792 Ry
     Harris-Foulkes estimate   =   -2273.00968661 Ry
     estimated scf accuracy    <       4.76401933 Ry

     iteration # 12     ecut=    60.00 Ry     beta= 0.70
     Davidson diagonalization with overlap
     ethr =  5.40E-04,  avg # of iterations = 12.9

     total cpu time spent up to now is      769.9 secs

     total energy              =   -2272.53656867 Ry
     Harris-Foulkes estimate   =   -2273.03586615 Ry
     estimated scf accuracy    <       2.02990555 Ry

     iteration # 13     ecut=    60.00 Ry     beta= 0.70
     Davidson diagonalization with overlap
     ethr =  5.40E-04,  avg # of iterations = 12.8

     total cpu time spent up to now is      881.6 secs

     total energy              =   -2272.39431061 Ry
     Harris-Foulkes estimate   =   -2273.10712241 Ry
     estimated scf accuracy    <       6.19190055 Ry

     iteration # 14     ecut=    60.00 Ry     beta= 0.70
     Davidson diagonalization with overlap
     ethr =  5.40E-04,  avg # of iterations =  4.0

     total cpu time spent up to now is      935.8 secs

     total energy              =   -2272.72810879 Ry
     Harris-Foulkes estimate   =   -2272.87856097 Ry
     estimated scf accuracy    <       0.74855280 Ry

     iteration # 15     ecut=    60.00 Ry     beta= 0.70
     Davidson diagonalization with overlap
     ethr =  2.79E-04,  avg # of iterations =  2.0

     total cpu time spent up to now is      977.3 secs

     total energy              =   -2272.74376908 Ry
     Harris-Foulkes estimate   =   -2272.87157115 Ry
     estimated scf accuracy    <       1.60419838 Ry

     iteration # 16     ecut=    60.00 Ry     beta= 0.70
     Davidson diagonalization with overlap
     ethr =  2.79E-04,  avg # of iterations =  1.6

     total cpu time spent up to now is     1016.6 secs

     total energy              =   -2272.78118905 Ry
     Harris-Foulkes estimate   =   -2272.82919684 Ry
     estimated scf accuracy    <       0.66294027 Ry

     iteration # 17     ecut=    60.00 Ry     beta= 0.70
     Davidson diagonalization with overlap
     ethr =  2.47E-04,  avg # of iterations =  1.0

     total cpu time spent up to now is     1055.1 secs

     total energy              =   -2272.76367417 Ry
     Harris-Foulkes estimate   =   -2272.86450788 Ry
     estimated scf accuracy    <       1.62315538 Ry

     iteration # 18     ecut=    60.00 Ry     beta= 0.70
     Davidson diagonalization with overlap
     ethr =  2.47E-04,  avg # of iterations =  1.0

     total cpu time spent up to now is     1093.3 secs

     total energy              =   -2272.78876669 Ry
     Harris-Foulkes estimate   =   -2272.83450777 Ry
     estimated scf accuracy    <       0.56799998 Ry

     iteration # 19     ecut=    60.00 Ry     beta= 0.70
     Davidson diagonalization with overlap
     ethr =  2.12E-04,  avg # of iterations =  1.2

     total cpu time spent up to now is     1131.9 secs

     total energy              =   -2272.79536098 Ry
     Harris-Foulkes estimate   =   -2272.82914464 Ry
     estimated scf accuracy    <       0.43561800 Ry

     iteration # 20     ecut=    60.00 Ry     beta= 0.70
     Davidson diagonalization with overlap
     ethr =  1.63E-04,  avg # of iterations =  1.0

     total cpu time spent up to now is     1169.9 secs

     total energy              =   -2272.81155186 Ry
     Harris-Foulkes estimate   =   -2272.81294856 Ry
     estimated scf accuracy    <       0.01351539 Ry

     iteration # 21     ecut=    60.00 Ry     beta= 0.70
     Davidson diagonalization with overlap
     c_bands:  5 eigenvalues not converged
     c_bands:  5 eigenvalues not converged
     c_bands:  3 eigenvalues not converged
     c_bands:  5 eigenvalues not converged
     c_bands:  3 eigenvalues not converged
     c_bands:  3 eigenvalues not converged
     c_bands:  2 eigenvalues not converged
     c_bands:  5 eigenvalues not converged
     c_bands:  5 eigenvalues not converged
     c_bands:  3 eigenvalues not converged
     c_bands:  4 eigenvalues not converged
     c_bands:  4 eigenvalues not converged
     c_bands:  2 eigenvalues not converged
     c_bands:  5 eigenvalues not converged
     c_bands:  4 eigenvalues not converged
     c_bands:  2 eigenvalues not converged
     c_bands:  5 eigenvalues not converged
     c_bands:  5 eigenvalues not converged
     c_bands:  3 eigenvalues not converged
     c_bands:  4 eigenvalues not converged
     c_bands:  3 eigenvalues not converged
     c_bands:  5 eigenvalues not converged
     c_bands:  5 eigenvalues not converged
     c_bands:  4 eigenvalues not converged
     ethr =  5.04E-06,  avg # of iterations = 20.4

     total cpu time spent up to now is     1313.6 secs

     total energy              =   -2272.81220792 Ry
     Harris-Foulkes estimate   =   -2272.81296647 Ry
     estimated scf accuracy    <       0.00483988 Ry

     iteration # 22     ecut=    60.00 Ry     beta= 0.70
     Davidson diagonalization with overlap
     ethr =  1.81E-06,  avg # of iterations =  2.1

     total cpu time spent up to now is     1354.3 secs

     total energy              =   -2272.81234509 Ry
     Harris-Foulkes estimate   =   -2272.81284976 Ry
     estimated scf accuracy    <       0.00359403 Ry

     iteration # 23     ecut=    60.00 Ry     beta= 0.70
     Davidson diagonalization with overlap
     ethr =  1.34E-06,  avg # of iterations =  2.0

     total cpu time spent up to now is     1395.7 secs

     total energy              =   -2272.81242615 Ry
     Harris-Foulkes estimate   =   -2272.81291964 Ry
     estimated scf accuracy    <       0.00269273 Ry

     iteration # 24     ecut=    60.00 Ry     beta= 0.70
     Davidson diagonalization with overlap
     ethr =  1.00E-06,  avg # of iterations =  2.0

     total cpu time spent up to now is     1436.3 secs

     total energy              =   -2272.81254852 Ry
     Harris-Foulkes estimate   =   -2272.81276655 Ry
     estimated scf accuracy    <       0.00151164 Ry

     iteration # 25     ecut=    60.00 Ry     beta= 0.70
     Davidson diagonalization with overlap
[mpiexec@rice-a375.rcac.purdue.edu] Sending Ctrl-C to processes as requested
[mpiexec@rice-a375.rcac.purdue.edu] Press Ctrl-C again to force abort
