
     Program PWSCF v.6.2 (svn rev. 14038) starts on  1Jul2019 at 10:46:11 

     This program is part of the open-source Quantum ESPRESSO suite
     for quantum simulation of materials; please cite
         "P. Giannozzi et al., J. Phys.:Condens. Matter 21 395502 (2009);
         "P. Giannozzi et al., J. Phys.:Condens. Matter 29 465901 (2017);
          URL http://www.quantum-espresso.org", 
     in publications or presentations arising from this work. More details at
     http://www.quantum-espresso.org/quote

     Parallel version (MPI & OpenMP), running on      20 processor cores
     Number of MPI processes:                20
     Threads/MPI process:                     1

     MPI processes distributed on     1 nodes
     R & G space division:  proc/nbgrp/npool/nimage =      20
     Reading input from LaNiO3.in

     Current dimensions of program PWSCF are:
     Max number of different atomic species (ntypx) = 10
     Max number of k-points (npk) =  40000
     Max angular momentum in pseudopotentials (lmaxx) =  3
               file La.pz-spfn-rrkjus_psl.1.0.0.UPF: wavefunction(s)  4F renormalized
               file Ni.pz-n-rrkjus_psl.0.1.UPF: wavefunction(s)  3D renormalized

     Subspace diagonalization in iterative solution of the eigenvalue problem:
     one sub-group per band group will be used
     scalapack distributed-memory algorithm (size of sub-group:  3*  3 procs)

 
     Parallelization info
     --------------------
     sticks:   dense  smooth     PW     G-vecs:    dense   smooth      PW
     Min          50      50     14                 1210     1210     186
     Max          51      51     15                 1213     1213     189
     Sum        1005    1005    293                24207    24207    3743
 


     bravais-lattice index     =            1
     lattice parameter (alat)  =       7.2889  a.u.
     unit-cell volume          =     387.2392 (a.u.)^3
     number of atoms/cell      =            5
     number of atomic types    =            3
     number of electrons       =        39.00
     number of Kohn-Sham states=           24
     kinetic-energy cutoff     =      60.0000  Ry
     charge density cutoff     =     240.0000  Ry
     convergence threshold     =      1.0E-08
     mixing beta               =       0.7000
     number of iterations used =            8  plain     mixing
     Exchange-correlation      = LDA ( 1  1  0  0 0 0)
     nstep                     =          300


     celldm(1)=   7.288863  celldm(2)=   0.000000  celldm(3)=   0.000000
     celldm(4)=   0.000000  celldm(5)=   0.000000  celldm(6)=   0.000000

     crystal axes: (cart. coord. in units of alat)
               a(1) = (   1.000000   0.000000   0.000000 )  
               a(2) = (   0.000000   1.000000   0.000000 )  
               a(3) = (   0.000000   0.000000   1.000000 )  

     reciprocal axes: (cart. coord. in units 2 pi/alat)
               b(1) = (  1.000000  0.000000  0.000000 )  
               b(2) = (  0.000000  1.000000  0.000000 )  
               b(3) = (  0.000000  0.000000  1.000000 )  


     PseudoPot. # 1 for La read from file:
     ./La.pz-spfn-rrkjus_psl.1.0.0.UPF
     MD5 check sum: e4cc26dd351bb2aa33b11ee919d4576a
     Pseudo is Ultrasoft + core correction, Zval = 11.0
     Generated using "atomic" code by A. Dal Corso v.6.2.2
     Using radial grid of 1253 points,  8 beta functions with: 
                l(1) =   0
                l(2) =   0
                l(3) =   1
                l(4) =   1
                l(5) =   2
                l(6) =   2
                l(7) =   3
                l(8) =   3
     Q(r) pseudized with 0 coefficients 


     PseudoPot. # 2 for Ni read from file:
     ./Ni.pz-n-rrkjus_psl.0.1.UPF
     MD5 check sum: 4def80e42349afdd14834ce81d852c61
     Pseudo is Ultrasoft + core correction, Zval = 10.0
     Generated using "atomic" code by A. Dal Corso v.5.0.2 svn rev. 9415
     Using radial grid of 1195 points,  6 beta functions with: 
                l(1) =   0
                l(2) =   0
                l(3) =   1
                l(4) =   1
                l(5) =   2
                l(6) =   2
     Q(r) pseudized with 0 coefficients 


     PseudoPot. # 3 for O  read from file:
     ./O.pz-n-rrkjus_psl.0.1.UPF
     MD5 check sum: 6e384d5705d3ad042f52b90450e69d34
     Pseudo is Ultrasoft + core correction, Zval =  6.0
     Generated using "atomic" code by A. Dal Corso v.5.0.2 svn rev. 9415
     Using radial grid of 1095 points,  4 beta functions with: 
                l(1) =   0
                l(2) =   0
                l(3) =   1
                l(4) =   1
     Q(r) pseudized with 0 coefficients 


     atomic species   valence    mass     pseudopotential
        La            11.00   138.90550     La( 1.00)
        Ni            10.00    58.69340     Ni( 1.00)
        O              6.00    15.99940     O ( 1.00)

     48 Sym. Ops., with inversion, found



   Cartesian axes

     site n.     atom                  positions (alat units)
         1           La  tau(   1) = (   0.5000000   0.5000000   0.5000000  )
         2           Ni  tau(   2) = (   0.0000000   0.0000000   0.0000000  )
         3           O   tau(   3) = (   0.0000000   0.0000000   0.5000000  )
         4           O   tau(   4) = (   0.5000000   0.0000000   0.0000000  )
         5           O   tau(   5) = (   0.0000000   0.5000000   0.0000000  )

     number of k points=     4  gaussian smearing, width (Ry)=  0.0100
                       cart. coord. in units 2pi/alat
        k(    1) = (   0.1250000   0.1250000   0.1250000), wk =   0.2500000
        k(    2) = (   0.1250000   0.1250000   0.3750000), wk =   0.7500000
        k(    3) = (   0.1250000   0.3750000   0.3750000), wk =   0.7500000
        k(    4) = (   0.3750000   0.3750000   0.3750000), wk =   0.2500000

     Dense  grid:    24207 G-vectors     FFT dimensions: (  36,  36,  36)

     Estimated max dynamical RAM per process >      32.56 MB

     Estimated total dynamical RAM >     651.24 MB

     Check: negative/imaginary core charge=   -0.000496    0.000000

     Initial potential from superposition of free atoms

     starting charge   38.97328, renormalised to   39.00000
     Starting wfc are   41 randomized atomic wfcs

     total cpu time spent up to now is        2.8 secs

     Self-consistent Calculation

     iteration #  1     ecut=    60.00 Ry     beta= 0.70
     Davidson diagonalization with overlap
     ethr =  1.00E-02,  avg # of iterations =  2.0

     total cpu time spent up to now is        2.9 secs

     total energy              =    -325.28296618 Ry
     Harris-Foulkes estimate   =    -326.15406455 Ry
     estimated scf accuracy    <       1.10094610 Ry

     iteration #  2     ecut=    60.00 Ry     beta= 0.70
     Davidson diagonalization with overlap
     ethr =  2.82E-03,  avg # of iterations =  5.0

     total cpu time spent up to now is        3.0 secs

     total energy              =    -324.78469598 Ry
     Harris-Foulkes estimate   =    -327.35314341 Ry
     estimated scf accuracy    <       8.31821431 Ry

     iteration #  3     ecut=    60.00 Ry     beta= 0.70
     Davidson diagonalization with overlap
     ethr =  2.82E-03,  avg # of iterations =  4.0

     total cpu time spent up to now is        3.2 secs

     total energy              =    -325.88396475 Ry
     Harris-Foulkes estimate   =    -325.96665642 Ry
     estimated scf accuracy    <       0.24952866 Ry

     iteration #  4     ecut=    60.00 Ry     beta= 0.70
     Davidson diagonalization with overlap
     ethr =  6.40E-04,  avg # of iterations =  2.0

     total cpu time spent up to now is        3.3 secs

     total energy              =    -325.92344144 Ry
     Harris-Foulkes estimate   =    -325.92963869 Ry
     estimated scf accuracy    <       0.01338045 Ry

     iteration #  5     ecut=    60.00 Ry     beta= 0.70
     Davidson diagonalization with overlap
     ethr =  3.43E-05,  avg # of iterations =  3.5

     total cpu time spent up to now is        3.4 secs

     total energy              =    -325.92539377 Ry
     Harris-Foulkes estimate   =    -325.92672311 Ry
     estimated scf accuracy    <       0.00294447 Ry

     iteration #  6     ecut=    60.00 Ry     beta= 0.70
     Davidson diagonalization with overlap
     ethr =  7.55E-06,  avg # of iterations =  4.2

     total cpu time spent up to now is        3.6 secs

     total energy              =    -325.92604682 Ry
     Harris-Foulkes estimate   =    -325.92613131 Ry
     estimated scf accuracy    <       0.00022882 Ry

     iteration #  7     ecut=    60.00 Ry     beta= 0.70
     Davidson diagonalization with overlap
     ethr =  5.87E-07,  avg # of iterations =  5.2

     total cpu time spent up to now is        3.7 secs

     total energy              =    -325.92612309 Ry
     Harris-Foulkes estimate   =    -325.92613599 Ry
     estimated scf accuracy    <       0.00004335 Ry

     iteration #  8     ecut=    60.00 Ry     beta= 0.70
     Davidson diagonalization with overlap
     ethr =  1.11E-07,  avg # of iterations =  3.8

     total cpu time spent up to now is        3.9 secs

     total energy              =    -325.92613296 Ry
     Harris-Foulkes estimate   =    -325.92613373 Ry
     estimated scf accuracy    <       0.00000151 Ry

     iteration #  9     ecut=    60.00 Ry     beta= 0.70
     Davidson diagonalization with overlap
     ethr =  3.87E-09,  avg # of iterations =  5.2

     total cpu time spent up to now is        4.0 secs

     total energy              =    -325.92613381 Ry
     Harris-Foulkes estimate   =    -325.92613396 Ry
     estimated scf accuracy    <       0.00000063 Ry

     iteration # 10     ecut=    60.00 Ry     beta= 0.70
     Davidson diagonalization with overlap
     ethr =  1.62E-09,  avg # of iterations =  2.0

     total cpu time spent up to now is        4.1 secs

     End of self-consistent calculation

          k = 0.1250 0.1250 0.1250 (  3029 PWs)   bands (ev):

   -19.4854  -6.6721  -5.1983  -5.1983  -2.8896  -2.8896  -2.6588   6.5554
     7.0607   7.0607   8.4744   8.4744   9.0622   9.6757   9.8731   9.8731
    10.4255  10.4255  10.4480  11.6911  11.6911  14.9500  14.9500  15.4367

          k = 0.1250 0.1250 0.3750 (  3036 PWs)   bands (ev):

   -19.4361  -6.8097  -5.5222  -5.0676  -2.9602  -2.6909  -2.2790   5.8571
     6.8365   6.9418   7.5183   7.7992   8.7281   9.2747   9.4549   9.5419
    10.4581  11.1024  11.1683  11.5959  12.8582  15.1803  15.3703  15.4278

          k = 0.1250 0.3750 0.3750 (  3034 PWs)   bands (ev):

   -19.3922  -6.3742  -5.8478  -5.2990  -2.9486  -2.6428  -2.4620   5.3926
     6.4904   6.5296   7.1548   7.5965   7.9638   9.4208   9.7198  10.5016
    11.0580  11.1072  11.1475  12.0220  14.0383  15.2295  15.2525  15.4432

          k = 0.3750 0.3750 0.3750 (  3043 PWs)   bands (ev):

   -19.3525  -5.9495  -5.4446  -5.4446  -3.2954  -3.2954  -2.9037   4.8879
     6.5007   6.5007   7.1040   7.4728   7.4728  10.3334  10.3334  10.5900
    11.3346  11.4090  11.4090  14.0124  14.0124  15.3060  15.3060  15.3483

     the Fermi energy is    11.7244 ev

!    total energy              =    -325.92613388 Ry
     Harris-Foulkes estimate   =    -325.92613388 Ry
     estimated scf accuracy    <          2.9E-09 Ry

     The total energy is the sum of the following terms:

     one-electron contribution =     -35.19574171 Ry
     hartree contribution      =      54.19144923 Ry
     xc contribution           =    -138.99783904 Ry
     ewald contribution        =    -205.92178230 Ry
     smearing contrib. (-TS)   =      -0.00222007 Ry

     convergence has been achieved in  10 iterations

     Forces acting on atoms (cartesian axes, Ry/au):

     atom    1 type  1   force =     0.00000000    0.00000000    0.00000000
     atom    2 type  2   force =     0.00000000    0.00000000    0.00000000
     atom    3 type  3   force =     0.00000000    0.00000000    0.00000000
     atom    4 type  3   force =     0.00000000    0.00000000    0.00000000
     atom    5 type  3   force =     0.00000000    0.00000000    0.00000000

     Total force =     0.000000     Total SCF correction =     0.000000


     Computing stress (Cartesian axis) and pressure

          total   stress  (Ry/bohr**3)                   (kbar)     P= -151.30
  -0.00102853   0.00000000   0.00000000       -151.30      0.00      0.00
   0.00000000  -0.00102853   0.00000000          0.00   -151.30      0.00
   0.00000000   0.00000000  -0.00102853          0.00      0.00   -151.30


     BFGS Geometry Optimization

     number of scf cycles    =   1
     number of bfgs steps    =   0

     enthalpy new            =    -325.9261338814 Ry

     new trust radius        =       0.1011990564 bohr
     new conv_thr            =       0.0000000100 Ry

     new unit-cell volume =    358.12918 a.u.^3 (    53.06927 Ang^3 )
     density =      7.68474 g/cm^3

CELL_PARAMETERS (alat=  7.28886267)
   0.974286759   0.000000000   0.000000000
   0.000000000   0.974286759   0.000000000
   0.000000000   0.000000000   0.974286759

ATOMIC_POSITIONS (crystal)
La       0.500000000   0.500000000   0.500000000
Ni       0.000000000   0.000000000   0.000000000
O        0.000000000   0.000000000   0.500000000
O        0.500000000   0.000000000   0.000000000
O        0.000000000   0.500000000   0.000000000



     Writing output data file LaNiO3.save
     NEW-OLD atomic charge density approx. for the potential

     Check: negative/imaginary core charge=   -0.000365    0.000000
     extrapolated charge   35.83211, renormalised to   39.00000

     total cpu time spent up to now is        5.0 secs

     Self-consistent Calculation

     iteration #  1     ecut=    60.00 Ry     beta= 0.70
     Davidson diagonalization with overlap
     ethr =  1.00E-06,  avg # of iterations =  9.2

     total cpu time spent up to now is        5.3 secs

     total energy              =    -321.73531092 Ry
     Harris-Foulkes estimate   =    -329.94611667 Ry
     estimated scf accuracy    <       3.95561991 Ry

     iteration #  2     ecut=    60.00 Ry     beta= 0.70
     Davidson diagonalization with overlap
     ethr =  1.00E-02,  avg # of iterations =  6.0

     total cpu time spent up to now is        5.5 secs

     total energy              =    -324.20561971 Ry
     Harris-Foulkes estimate   =    -342.21560354 Ry
     estimated scf accuracy    <      86.71646321 Ry

     iteration #  3     ecut=    60.00 Ry     beta= 0.70
     Davidson diagonalization with overlap
     ethr =  1.00E-02,  avg # of iterations =  4.0

     total cpu time spent up to now is        5.6 secs

     total energy              =    -325.46755859 Ry
     Harris-Foulkes estimate   =    -327.47219248 Ry
     estimated scf accuracy    <      12.24771053 Ry

     iteration #  4     ecut=    60.00 Ry     beta= 0.70
     Davidson diagonalization with overlap
     ethr =  1.00E-02,  avg # of iterations =  2.5

     total cpu time spent up to now is        5.8 secs

     total energy              =    -326.03459770 Ry
     Harris-Foulkes estimate   =    -326.13802950 Ry
     estimated scf accuracy    <       0.97401769 Ry

     iteration #  5     ecut=    60.00 Ry     beta= 0.70
     Davidson diagonalization with overlap
     ethr =  2.50E-03,  avg # of iterations =  1.0

     total cpu time spent up to now is        5.8 secs

     total energy              =    -325.99661914 Ry
     Harris-Foulkes estimate   =    -326.05545365 Ry
     estimated scf accuracy    <       0.68308913 Ry

     iteration #  6     ecut=    60.00 Ry     beta= 0.70
     Davidson diagonalization with overlap
     ethr =  1.75E-03,  avg # of iterations =  1.5

     total cpu time spent up to now is        5.9 secs

     total energy              =    -325.95376298 Ry
     Harris-Foulkes estimate   =    -326.00643904 Ry
     estimated scf accuracy    <       0.40345614 Ry

     iteration #  7     ecut=    60.00 Ry     beta= 0.70
     Davidson diagonalization with overlap
     ethr =  1.03E-03,  avg # of iterations =  2.2

     total cpu time spent up to now is        6.1 secs

     total energy              =    -325.95923220 Ry
     Harris-Foulkes estimate   =    -325.96463794 Ry
     estimated scf accuracy    <       0.16600506 Ry

     iteration #  8     ecut=    60.00 Ry     beta= 0.70
     Davidson diagonalization with overlap
     ethr =  4.26E-04,  avg # of iterations =  6.5

     total cpu time spent up to now is        6.2 secs

     total energy              =    -325.95867378 Ry
     Harris-Foulkes estimate   =    -325.96223183 Ry
     estimated scf accuracy    <       0.13571069 Ry

     iteration #  9     ecut=    60.00 Ry     beta= 0.70
     Davidson diagonalization with overlap
     ethr =  3.48E-04,  avg # of iterations =  1.0

     total cpu time spent up to now is        6.3 secs

     total energy              =    -325.95011393 Ry
     Harris-Foulkes estimate   =    -325.95978897 Ry
     estimated scf accuracy    <       0.11397707 Ry

     iteration # 10     ecut=    60.00 Ry     beta= 0.70
     Davidson diagonalization with overlap
     ethr =  2.92E-04,  avg # of iterations =  1.0

     total cpu time spent up to now is        6.4 secs

     total energy              =    -325.92989170 Ry
     Harris-Foulkes estimate   =    -325.95173999 Ry
     estimated scf accuracy    <       0.06747238 Ry

     iteration # 11     ecut=    60.00 Ry     beta= 0.70
     Davidson diagonalization with overlap
     ethr =  1.73E-04,  avg # of iterations =  6.5

     total cpu time spent up to now is        6.6 secs

     total energy              =    -325.94182346 Ry
     Harris-Foulkes estimate   =    -325.94213888 Ry
     estimated scf accuracy    <       0.00068918 Ry

     iteration # 12     ecut=    60.00 Ry     beta= 0.70
     Davidson diagonalization with overlap
     ethr =  1.77E-06,  avg # of iterations = 12.5

     total cpu time spent up to now is        6.8 secs

     total energy              =    -325.94270617 Ry
     Harris-Foulkes estimate   =    -325.94320660 Ry
     estimated scf accuracy    <       0.00129727 Ry

     iteration # 13     ecut=    60.00 Ry     beta= 0.70
     Davidson diagonalization with overlap
     ethr =  1.77E-06,  avg # of iterations =  5.8

     total cpu time spent up to now is        7.0 secs

     total energy              =    -325.94301060 Ry
     Harris-Foulkes estimate   =    -325.94308241 Ry
     estimated scf accuracy    <       0.00036346 Ry

     iteration # 14     ecut=    60.00 Ry     beta= 0.70
     Davidson diagonalization with overlap
     ethr =  9.32E-07,  avg # of iterations =  1.0

     total cpu time spent up to now is        7.1 secs

     total energy              =    -325.94297385 Ry
     Harris-Foulkes estimate   =    -325.94302426 Ry
     estimated scf accuracy    <       0.00017186 Ry

     iteration # 15     ecut=    60.00 Ry     beta= 0.70
     Davidson diagonalization with overlap
     ethr =  4.41E-07,  avg # of iterations =  3.0

     total cpu time spent up to now is        7.2 secs

     total energy              =    -325.94297585 Ry
     Harris-Foulkes estimate   =    -325.94298887 Ry
     estimated scf accuracy    <       0.00005775 Ry

     iteration # 16     ecut=    60.00 Ry     beta= 0.70
     Davidson diagonalization with overlap
     ethr =  1.48E-07,  avg # of iterations =  1.8

     total cpu time spent up to now is        7.3 secs

     total energy              =    -325.94299321 Ry
     Harris-Foulkes estimate   =    -325.94297913 Ry
     estimated scf accuracy    <       0.00004171 Ry

     iteration # 17     ecut=    60.00 Ry     beta= 0.70
     Davidson diagonalization with overlap
     ethr =  1.07E-07,  avg # of iterations =  2.0

     total cpu time spent up to now is        7.4 secs

     total energy              =    -325.94296394 Ry
     Harris-Foulkes estimate   =    -325.94299912 Ry
     estimated scf accuracy    <       0.00007439 Ry

     iteration # 18     ecut=    60.00 Ry     beta= 0.70
     Davidson diagonalization with overlap
     ethr =  1.07E-07,  avg # of iterations =  3.5

     total cpu time spent up to now is        7.5 secs

     total energy              =    -325.94296473 Ry
     Harris-Foulkes estimate   =    -325.94297027 Ry
     estimated scf accuracy    <       0.00001092 Ry

     iteration # 19     ecut=    60.00 Ry     beta= 0.70
     Davidson diagonalization with overlap
     ethr =  2.80E-08,  avg # of iterations =  4.2

     total cpu time spent up to now is        7.7 secs

     total energy              =    -325.94296789 Ry
     Harris-Foulkes estimate   =    -325.94296789 Ry
     estimated scf accuracy    <       0.00000008 Ry

     iteration # 20     ecut=    60.00 Ry     beta= 0.70
     Davidson diagonalization with overlap
     ethr =  1.97E-10,  avg # of iterations =  5.0

     total cpu time spent up to now is        7.8 secs

     total energy              =    -325.94296791 Ry
     Harris-Foulkes estimate   =    -325.94296796 Ry
     estimated scf accuracy    <       0.00000013 Ry

     iteration # 21     ecut=    60.00 Ry     beta= 0.70
     Davidson diagonalization with overlap
     ethr =  1.97E-10,  avg # of iterations =  3.2

     total cpu time spent up to now is        8.0 secs

     total energy              =    -325.94296792 Ry
     Harris-Foulkes estimate   =    -325.94296792 Ry
     estimated scf accuracy    <       0.00000002 Ry

     iteration # 22     ecut=    60.00 Ry     beta= 0.70
     Davidson diagonalization with overlap
     ethr =  5.56E-11,  avg # of iterations =  3.0

     total cpu time spent up to now is        8.1 secs

     End of self-consistent calculation

          k = 0.1283 0.1283 0.1283 (  3029 PWs)   bands (ev):

   -17.8979  -5.8133  -4.2016  -4.2016  -1.3416  -1.3416  -1.0431   7.5152
     8.0675   8.0675   9.4717   9.4717  10.1915  10.7679  11.0857  11.0857
    11.6849  11.6849  11.7153  13.1270  13.1270  16.4622  16.4622  17.1480

          k = 0.1283 0.1283 0.3849 (  3036 PWs)   bands (ev):

   -17.8238  -6.0066  -4.5362  -4.0544  -1.4116  -1.0797  -0.6107   6.7246
     7.7733   7.8692   8.4859   8.8074   9.7972  10.3311  10.6542  10.6919
    11.7128  12.4226  12.5099  13.0259  14.4384  16.8328  17.0523  17.1372

          k = 0.1283 0.3849 0.3849 (  3034 PWs)   bands (ev):

   -17.7589  -5.5167  -4.9144  -4.3133  -1.3987  -1.0751  -0.8256   6.2557
     7.3712   7.4252   8.1194   8.5464   8.9897  10.5745  10.9232  11.7092
    12.3904  12.4425  12.4846  13.5304  15.6997  16.8925  16.9265  17.1549

          k = 0.3849 0.3849 0.3849 (  3043 PWs)   bands (ev):

   -17.7013  -5.0369  -4.4675  -4.4675  -1.8741  -1.8741  -1.3940   5.7375
     7.3772   7.3772   8.1280   8.5675   8.5675  11.5226  11.5226  11.7885
    12.7251  12.8100  12.8100  15.6792  15.6792  16.9912  16.9912  17.0467

     the Fermi energy is    13.1581 ev

!    total energy              =    -325.94296791 Ry
     Harris-Foulkes estimate   =    -325.94296792 Ry
     estimated scf accuracy    <          8.6E-09 Ry

     The total energy is the sum of the following terms:

     one-electron contribution =     -27.52780460 Ry
     hartree contribution      =      52.25396666 Ry
     xc contribution           =    -139.31052466 Ry
     ewald contribution        =    -211.35644141 Ry
     smearing contrib. (-TS)   =      -0.00216391 Ry

     convergence has been achieved in  22 iterations

     Forces acting on atoms (cartesian axes, Ry/au):

     atom    1 type  1   force =     0.00000000    0.00000000    0.00000000
     atom    2 type  2   force =     0.00000000    0.00000000    0.00000000
     atom    3 type  3   force =     0.00000000    0.00000000    0.00000000
     atom    4 type  3   force =     0.00000000    0.00000000    0.00000000
     atom    5 type  3   force =     0.00000000    0.00000000    0.00000000

     Total force =     0.000000     Total SCF correction =     0.000000


     Computing stress (Cartesian axis) and pressure

          total   stress  (Ry/bohr**3)                   (kbar)     P=   -8.40
  -0.00005713   0.00000000   0.00000000         -8.40      0.00      0.00
   0.00000000  -0.00005713   0.00000000          0.00     -8.40      0.00
   0.00000000   0.00000000  -0.00005713          0.00      0.00     -8.40


     number of scf cycles    =   2
     number of bfgs steps    =   1

     enthalpy old            =    -325.9261338814 Ry
     enthalpy new            =    -325.9429679114 Ry

     CASE: enthalpy_new < enthalpy_old

     new trust radius        =       0.0055594175 bohr
     new conv_thr            =            1.0E-10 Ry

     new unit-cell volume =    356.55337 a.u.^3 (    52.83576 Ang^3 )
     density =      7.71870 g/cm^3

CELL_PARAMETERS (alat=  7.28886267)
   0.972855671   0.000000000   0.000000000
   0.000000000   0.972855671   0.000000000
   0.000000000   0.000000000   0.972855671

ATOMIC_POSITIONS (crystal)
La       0.500000000   0.500000000   0.500000000
Ni       0.000000000   0.000000000   0.000000000
O        0.000000000   0.000000000   0.500000000
O        0.500000000   0.000000000   0.000000000
O        0.000000000   0.500000000   0.000000000



     Writing output data file LaNiO3.save
     NEW-OLD atomic charge density approx. for the potential

     Check: negative/imaginary core charge=   -0.000358    0.000000
     extrapolated charge   38.82776, renormalised to   39.00000

     total cpu time spent up to now is        9.0 secs

     Self-consistent Calculation

     iteration #  1     ecut=    60.00 Ry     beta= 0.70
     Davidson diagonalization with overlap
     ethr =  1.00E-06,  avg # of iterations =  4.8

     total cpu time spent up to now is        9.1 secs

     total energy              =    -325.93046016 Ry
     Harris-Foulkes estimate   =    -326.12304572 Ry
     estimated scf accuracy    <       0.01143077 Ry

     iteration #  2     ecut=    60.00 Ry     beta= 0.70
     Davidson diagonalization with overlap
     ethr =  2.93E-05,  avg # of iterations =  4.5

     total cpu time spent up to now is        9.3 secs

     total energy              =    -325.92735092 Ry
     Harris-Foulkes estimate   =    -325.97369784 Ry
     estimated scf accuracy    <       0.19309718 Ry

     iteration #  3     ecut=    60.00 Ry     beta= 0.70
     Davidson diagonalization with overlap
     ethr =  2.93E-05,  avg # of iterations =  3.8

     total cpu time spent up to now is        9.4 secs

     total energy              =    -325.94343113 Ry
     Harris-Foulkes estimate   =    -325.94465410 Ry
     estimated scf accuracy    <       0.00776364 Ry

     iteration #  4     ecut=    60.00 Ry     beta= 0.70
     Davidson diagonalization with overlap
     ethr =  1.99E-05,  avg # of iterations =  1.0

     total cpu time spent up to now is        9.5 secs

     total energy              =    -325.94254478 Ry
     Harris-Foulkes estimate   =    -325.94365856 Ry
     estimated scf accuracy    <       0.00484673 Ry

     iteration #  5     ecut=    60.00 Ry     beta= 0.70
     Davidson diagonalization with overlap
     ethr =  1.24E-05,  avg # of iterations =  3.0

     total cpu time spent up to now is        9.6 secs

     total energy              =    -325.94307310 Ry
     Harris-Foulkes estimate   =    -325.94302805 Ry
     estimated scf accuracy    <       0.00050619 Ry

     iteration #  6     ecut=    60.00 Ry     beta= 0.70
     Davidson diagonalization with overlap
     ethr =  1.30E-06,  avg # of iterations =  3.0

     total cpu time spent up to now is        9.7 secs

     total energy              =    -325.94313241 Ry
     Harris-Foulkes estimate   =    -325.94312380 Ry
     estimated scf accuracy    <       0.00077494 Ry

     iteration #  7     ecut=    60.00 Ry     beta= 0.70
     Davidson diagonalization with overlap
     ethr =  1.30E-06,  avg # of iterations =  1.0

     total cpu time spent up to now is        9.8 secs

     total energy              =    -325.94305911 Ry
     Harris-Foulkes estimate   =    -325.94313679 Ry
     estimated scf accuracy    <       0.00079383 Ry

     iteration #  8     ecut=    60.00 Ry     beta= 0.70
     Davidson diagonalization with overlap
     ethr =  1.30E-06,  avg # of iterations =  1.0

     total cpu time spent up to now is        9.9 secs

     total energy              =    -325.94301490 Ry
     Harris-Foulkes estimate   =    -325.94307168 Ry
     estimated scf accuracy    <       0.00038593 Ry

     iteration #  9     ecut=    60.00 Ry     beta= 0.70
     Davidson diagonalization with overlap
     ethr =  9.90E-07,  avg # of iterations =  1.0

     total cpu time spent up to now is       10.0 secs

     total energy              =    -325.94296508 Ry
     Harris-Foulkes estimate   =    -325.94302609 Ry
     estimated scf accuracy    <       0.00013264 Ry

     iteration # 10     ecut=    60.00 Ry     beta= 0.70
     Davidson diagonalization with overlap
     ethr =  3.40E-07,  avg # of iterations =  3.8

     total cpu time spent up to now is       10.2 secs

     total energy              =    -325.94300144 Ry
     Harris-Foulkes estimate   =    -325.94301305 Ry
     estimated scf accuracy    <       0.00003648 Ry

     iteration # 11     ecut=    60.00 Ry     beta= 0.70
     Davidson diagonalization with overlap
     ethr =  9.35E-08,  avg # of iterations =  2.5

     total cpu time spent up to now is       10.3 secs

     total energy              =    -325.94300801 Ry
     Harris-Foulkes estimate   =    -325.94300791 Ry
     estimated scf accuracy    <       0.00000012 Ry

     iteration # 12     ecut=    60.00 Ry     beta= 0.70
     Davidson diagonalization with overlap
     ethr =  2.97E-10,  avg # of iterations =  5.2

     total cpu time spent up to now is       10.4 secs

     total energy              =    -325.94300864 Ry
     Harris-Foulkes estimate   =    -325.94300871 Ry
     estimated scf accuracy    <       0.00000098 Ry

     iteration # 13     ecut=    60.00 Ry     beta= 0.70
     Davidson diagonalization with overlap
     ethr =  2.97E-10,  avg # of iterations =  1.0

     total cpu time spent up to now is       10.5 secs

     total energy              =    -325.94300834 Ry
     Harris-Foulkes estimate   =    -325.94300864 Ry
     estimated scf accuracy    <       0.00000076 Ry

     iteration # 14     ecut=    60.00 Ry     beta= 0.70
     Davidson diagonalization with overlap
     ethr =  2.97E-10,  avg # of iterations =  4.0

     total cpu time spent up to now is       10.7 secs

     total energy              =    -325.94300844 Ry
     Harris-Foulkes estimate   =    -325.94300845 Ry
     estimated scf accuracy    <       0.00000003 Ry

     iteration # 15     ecut=    60.00 Ry     beta= 0.70
     Davidson diagonalization with overlap
     ethr =  7.76E-11,  avg # of iterations =  1.0

     total cpu time spent up to now is       10.8 secs

     total energy              =    -325.94300843 Ry
     Harris-Foulkes estimate   =    -325.94300844 Ry
     estimated scf accuracy    <       0.00000002 Ry

     iteration # 16     ecut=    60.00 Ry     beta= 0.70
     Davidson diagonalization with overlap
     ethr =  5.29E-11,  avg # of iterations =  4.8

     total cpu time spent up to now is       10.9 secs

     total energy              =    -325.94300844 Ry
     Harris-Foulkes estimate   =    -325.94300845 Ry
     estimated scf accuracy    <       0.00000004 Ry

     iteration # 17     ecut=    60.00 Ry     beta= 0.70
     Davidson diagonalization with overlap
     ethr =  5.29E-11,  avg # of iterations =  1.0

     total cpu time spent up to now is       11.0 secs

     total energy              =    -325.94300844 Ry
     Harris-Foulkes estimate   =    -325.94300844 Ry
     estimated scf accuracy    <       0.00000002 Ry

     iteration # 18     ecut=    60.00 Ry     beta= 0.70
     Davidson diagonalization with overlap
     ethr =  5.03E-11,  avg # of iterations =  3.0

     total cpu time spent up to now is       11.2 secs

     total energy              =    -325.94300844 Ry
     Harris-Foulkes estimate   =    -325.94300844 Ry
     estimated scf accuracy    <          7.7E-10 Ry

     iteration # 19     ecut=    60.00 Ry     beta= 0.70
     Davidson diagonalization with overlap
     ethr =  1.97E-12,  avg # of iterations =  4.5

     total cpu time spent up to now is       11.3 secs

     total energy              =    -325.94300844 Ry
     Harris-Foulkes estimate   =    -325.94300844 Ry
     estimated scf accuracy    <          1.2E-10 Ry

     iteration # 20     ecut=    60.00 Ry     beta= 0.70
     Davidson diagonalization with overlap
     ethr =  3.07E-13,  avg # of iterations =  2.8

     total cpu time spent up to now is       11.4 secs

     End of self-consistent calculation

          k = 0.1285 0.1285 0.1285 (  3029 PWs)   bands (ev):

   -17.8068  -5.7624  -4.1435  -4.1435  -1.2525  -1.2525  -0.9498   7.5723
     8.1274   8.1274   9.5301   9.5301  10.2579  10.8319  11.1570  11.1570
    11.7591  11.7591  11.7898  13.2117  13.2117  16.5500  16.5500  17.2474

          k = 0.1285 0.1285 0.3855 (  3036 PWs)   bands (ev):

   -17.7309  -5.9599  -4.4784  -3.9952  -1.3227  -0.9865  -0.5138   6.7757
     7.8288   7.9238   8.5428   8.8672   9.8600  10.3929  10.7251  10.7595
    11.7865  12.5002  12.5887  13.1103  14.5315  16.9286  17.1498  17.2365

          k = 0.1285 0.3855 0.3855 (  3034 PWs)   bands (ev):

   -17.6646  -5.4668  -4.8602  -4.2557  -1.3097  -0.9845  -0.7306   6.3067
     7.4230   7.4780   8.1766   8.6023   9.0502  10.6426  10.9943  11.7802
    12.4688  12.5210  12.5633  13.6194  15.7976  16.9889  17.0236  17.2543

          k = 0.3855 0.3855 0.3855 (  3043 PWs)   bands (ev):

   -17.6058  -4.9838  -4.4104  -4.4104  -1.7931  -1.7931  -1.3073   5.7880
     7.4287   7.4287   8.1891   8.6330   8.6330  11.5924  11.5924  11.8588
    12.8071  12.8927  12.8927  15.7775  15.7775  17.0890  17.0890  17.1453

     the Fermi energy is    13.2427 ev

!    total energy              =    -325.94300844 Ry
     Harris-Foulkes estimate   =    -325.94300844 Ry
     estimated scf accuracy    <          2.5E-11 Ry

     The total energy is the sum of the following terms:

     one-electron contribution =     -27.09034232 Ry
     hartree contribution      =      52.14597544 Ry
     xc contribution           =    -139.32912906 Ry
     ewald contribution        =    -211.66735043 Ry
     smearing contrib. (-TS)   =      -0.00216208 Ry

     convergence has been achieved in  20 iterations

     Forces acting on atoms (cartesian axes, Ry/au):

     atom    1 type  1   force =     0.00000000    0.00000000    0.00000000
     atom    2 type  2   force =     0.00000000    0.00000000    0.00000000
     atom    3 type  3   force =     0.00000000    0.00000000    0.00000000
     atom    4 type  3   force =     0.00000000    0.00000000    0.00000000
     atom    5 type  3   force =     0.00000000    0.00000000    0.00000000

     Total force =     0.000000     Total SCF correction =     0.000000


     Computing stress (Cartesian axis) and pressure

          total   stress  (Ry/bohr**3)                   (kbar)     P=    1.11
   0.00000756   0.00000000   0.00000000          1.11      0.00      0.00
   0.00000000   0.00000756   0.00000000          0.00      1.11      0.00
   0.00000000   0.00000000   0.00000756          0.00      0.00      1.11


     number of scf cycles    =   3
     number of bfgs steps    =   2

     enthalpy old            =    -325.9429679114 Ry
     enthalpy new            =    -325.9430084388 Ry

     CASE: enthalpy_new < enthalpy_old

     new trust radius        =       0.0006476932 bohr
     new conv_thr            =            1.0E-10 Ry

     new unit-cell volume =    356.73686 a.u.^3 (    52.86295 Ang^3 )
     density =      7.71473 g/cm^3

CELL_PARAMETERS (alat=  7.28886267)
   0.973022521   0.000000000   0.000000000
   0.000000000   0.973022521   0.000000000
   0.000000000   0.000000000   0.973022521

ATOMIC_POSITIONS (crystal)
La       0.500000000   0.500000000   0.500000000
Ni       0.000000000   0.000000000   0.000000000
O        0.000000000   0.000000000   0.500000000
O        0.500000000   0.000000000   0.000000000
O        0.000000000   0.500000000   0.000000000



     Writing output data file LaNiO3.save
     NEW-OLD atomic charge density approx. for the potential

     Check: negative/imaginary core charge=   -0.000358    0.000000
     extrapolated charge   39.02005, renormalised to   39.00000

     total cpu time spent up to now is       12.3 secs

     Self-consistent Calculation

     iteration #  1     ecut=    60.00 Ry     beta= 0.70
     Davidson diagonalization with overlap
     ethr =  1.00E-06,  avg # of iterations =  2.0

     total cpu time spent up to now is       12.4 secs

     total energy              =    -325.94284733 Ry
     Harris-Foulkes estimate   =    -325.92228374 Ry
     estimated scf accuracy    <       0.00014609 Ry

     iteration #  2     ecut=    60.00 Ry     beta= 0.70
     Davidson diagonalization with overlap
     ethr =  3.75E-07,  avg # of iterations =  4.0

     total cpu time spent up to now is       12.6 secs

     total energy              =    -325.94277872 Ry
     Harris-Foulkes estimate   =    -325.94341735 Ry
     estimated scf accuracy    <       0.00281612 Ry

     iteration #  3     ecut=    60.00 Ry     beta= 0.70
     Davidson diagonalization with overlap
     ethr =  3.75E-07,  avg # of iterations =  3.2

     total cpu time spent up to now is       12.7 secs

     total energy              =    -325.94301358 Ry
     Harris-Foulkes estimate   =    -325.94303239 Ry
     estimated scf accuracy    <       0.00010046 Ry

     iteration #  4     ecut=    60.00 Ry     beta= 0.70
     Davidson diagonalization with overlap
     ethr =  2.58E-07,  avg # of iterations =  1.0

     total cpu time spent up to now is       12.8 secs

     total energy              =    -325.94300492 Ry
     Harris-Foulkes estimate   =    -325.94301724 Ry
     estimated scf accuracy    <       0.00005918 Ry

     iteration #  5     ecut=    60.00 Ry     beta= 0.70
     Davidson diagonalization with overlap
     ethr =  1.52E-07,  avg # of iterations =  2.5

     total cpu time spent up to now is       12.9 secs

     total energy              =    -325.94301015 Ry
     Harris-Foulkes estimate   =    -325.94300999 Ry
     estimated scf accuracy    <       0.00001051 Ry

     iteration #  6     ecut=    60.00 Ry     beta= 0.70
     Davidson diagonalization with overlap
     ethr =  2.70E-08,  avg # of iterations =  2.2

     total cpu time spent up to now is       13.0 secs

     total energy              =    -325.94301057 Ry
     Harris-Foulkes estimate   =    -325.94301064 Ry
     estimated scf accuracy    <       0.00001067 Ry

     iteration #  7     ecut=    60.00 Ry     beta= 0.70
     Davidson diagonalization with overlap
     ethr =  2.70E-08,  avg # of iterations =  1.0

     total cpu time spent up to now is       13.1 secs

     total energy              =    -325.94300985 Ry
     Harris-Foulkes estimate   =    -325.94301066 Ry
     estimated scf accuracy    <       0.00000978 Ry

     iteration #  8     ecut=    60.00 Ry     beta= 0.70
     Davidson diagonalization with overlap
     ethr =  2.51E-08,  avg # of iterations =  1.0

     total cpu time spent up to now is       13.2 secs

     total energy              =    -325.94300861 Ry
     Harris-Foulkes estimate   =    -325.94300998 Ry
     estimated scf accuracy    <       0.00000548 Ry

     iteration #  9     ecut=    60.00 Ry     beta= 0.70
     Davidson diagonalization with overlap
     ethr =  1.40E-08,  avg # of iterations =  1.8

     total cpu time spent up to now is       13.3 secs

     total energy              =    -325.94300887 Ry
     Harris-Foulkes estimate   =    -325.94300907 Ry
     estimated scf accuracy    <       0.00000043 Ry

     iteration # 10     ecut=    60.00 Ry     beta= 0.70
     Davidson diagonalization with overlap
     ethr =  1.10E-09,  avg # of iterations =  4.8

     total cpu time spent up to now is       13.5 secs

     total energy              =    -325.94300909 Ry
     Harris-Foulkes estimate   =    -325.94300917 Ry
     estimated scf accuracy    <       0.00000023 Ry

     iteration # 11     ecut=    60.00 Ry     beta= 0.70
     Davidson diagonalization with overlap
     ethr =  5.91E-10,  avg # of iterations =  2.0

     total cpu time spent up to now is       13.6 secs

     total energy              =    -325.94300911 Ry
     Harris-Foulkes estimate   =    -325.94300912 Ry
     estimated scf accuracy    <       0.00000001 Ry

     iteration # 12     ecut=    60.00 Ry     beta= 0.70
     Davidson diagonalization with overlap
     ethr =  3.29E-11,  avg # of iterations =  5.0

     total cpu time spent up to now is       13.7 secs

     total energy              =    -325.94300913 Ry
     Harris-Foulkes estimate   =    -325.94300914 Ry
     estimated scf accuracy    <       0.00000006 Ry

     iteration # 13     ecut=    60.00 Ry     beta= 0.70
     Davidson diagonalization with overlap
     ethr =  3.29E-11,  avg # of iterations =  3.8

     total cpu time spent up to now is       13.9 secs

     total energy              =    -325.94300912 Ry
     Harris-Foulkes estimate   =    -325.94300913 Ry
     estimated scf accuracy    <       0.00000002 Ry

     iteration # 14     ecut=    60.00 Ry     beta= 0.70
     Davidson diagonalization with overlap
     ethr =  3.29E-11,  avg # of iterations =  4.0

     total cpu time spent up to now is       14.0 secs

     total energy              =    -325.94300912 Ry
     Harris-Foulkes estimate   =    -325.94300912 Ry
     estimated scf accuracy    <          1.0E-09 Ry

     iteration # 15     ecut=    60.00 Ry     beta= 0.70
     Davidson diagonalization with overlap
     ethr =  2.65E-12,  avg # of iterations =  2.8

     total cpu time spent up to now is       14.1 secs

     total energy              =    -325.94300912 Ry
     Harris-Foulkes estimate   =    -325.94300912 Ry
     estimated scf accuracy    <          1.6E-09 Ry

     iteration # 16     ecut=    60.00 Ry     beta= 0.70
     Davidson diagonalization with overlap
     ethr =  2.65E-12,  avg # of iterations =  4.0

     total cpu time spent up to now is       14.2 secs

     End of self-consistent calculation

          k = 0.1285 0.1285 0.1285 (  3029 PWs)   bands (ev):

   -17.8175  -5.7684  -4.1503  -4.1503  -1.2630  -1.2630  -0.9607   7.5657
     8.1204   8.1204   9.5233   9.5233  10.2501  10.8244  11.1487  11.1487
    11.7505  11.7505  11.7811  13.2018  13.2018  16.5397  16.5397  17.2358

          k = 0.1285 0.1285 0.3854 (  3036 PWs)   bands (ev):

   -17.7418  -5.9654  -4.4851  -4.0021  -1.3331  -0.9974  -0.5252   6.7698
     7.8223   7.9174   8.5362   8.8602   9.8527  10.3857  10.7168  10.7516
    11.7779  12.4911  12.5795  13.1004  14.5206  16.9174  17.1384  17.2248

          k = 0.1285 0.3854 0.3854 (  3034 PWs)   bands (ev):

   -17.6757  -5.4726  -4.8665  -4.2624  -1.3201  -0.9951  -0.7417   6.3007
     7.4169   7.4718   8.1699   8.5957   9.0432  10.6346  10.9860  11.7720
    12.4596  12.5119  12.5541  13.6090  15.7861  16.9776  17.0122  17.2426

          k = 0.3854 0.3854 0.3854 (  3043 PWs)   bands (ev):

   -17.6170  -4.9900  -4.4171  -4.4171  -1.8026  -1.8026  -1.3175   5.7821
     7.4227   7.4227   8.1819   8.6253   8.6253  11.5842  11.5842  11.8506
    12.7975  12.8830  12.8830  15.7660  15.7660  17.0775  17.0775  17.1337

     the Fermi energy is    13.2328 ev

!    total energy              =    -325.94300912 Ry
     Harris-Foulkes estimate   =    -325.94300912 Ry
     estimated scf accuracy    <          4.9E-12 Ry

     The total energy is the sum of the following terms:

     one-electron contribution =     -27.14136934 Ry
     hartree contribution      =      52.15852266 Ry
     xc contribution           =    -139.32694553 Ry
     ewald contribution        =    -211.63105462 Ry
     smearing contrib. (-TS)   =      -0.00216229 Ry

     convergence has been achieved in  16 iterations

     Forces acting on atoms (cartesian axes, Ry/au):

     atom    1 type  1   force =     0.00000000    0.00000000    0.00000000
     atom    2 type  2   force =     0.00000000    0.00000000    0.00000000
     atom    3 type  3   force =     0.00000000    0.00000000    0.00000000
     atom    4 type  3   force =     0.00000000    0.00000000    0.00000000
     atom    5 type  3   force =     0.00000000    0.00000000    0.00000000

     Total force =     0.000000     Total SCF correction =     0.000000


     Computing stress (Cartesian axis) and pressure

          total   stress  (Ry/bohr**3)                   (kbar)     P=   -0.03
  -0.00000018   0.00000000   0.00000000         -0.03      0.00      0.00
   0.00000000  -0.00000018   0.00000000          0.00     -0.03      0.00
   0.00000000   0.00000000  -0.00000018          0.00      0.00     -0.03


     bfgs converged in   4 scf cycles and   3 bfgs steps
     (criteria: energy <  1.0E-04 Ry, force <  1.0E-03Ry/Bohr, cell <  5.0E-01kbar)

     End of BFGS Geometry Optimization

     Final enthalpy =    -325.9430091233 Ry
Begin final coordinates
     new unit-cell volume =    356.73686 a.u.^3 (    52.86295 Ang^3 )
     density =      7.71473 g/cm^3

CELL_PARAMETERS (alat=  7.28886267)
   0.973022521   0.000000000   0.000000000
   0.000000000   0.973022521   0.000000000
   0.000000000   0.000000000   0.973022521

ATOMIC_POSITIONS (crystal)
La       0.500000000   0.500000000   0.500000000
Ni       0.000000000   0.000000000   0.000000000
O        0.000000000   0.000000000   0.500000000
O        0.500000000   0.000000000   0.000000000
O        0.000000000   0.500000000   0.000000000
End final coordinates



     A final scf calculation at the relaxed structure.
     The G-vectors are recalculated for the final unit cell
     Results may differ from those at the preceding step.
 
     Parallelization info
     --------------------
     sticks:   dense  smooth     PW     G-vecs:    dense   smooth      PW
     Min          48      48     13                 1115     1115     169
     Max          49      49     14                 1120     1120     172
     Sum         965     965    277                22335    22335    3431
 


     bravais-lattice index     =            1
     lattice parameter (alat)  =       7.2889  a.u.
     unit-cell volume          =     356.7369 (a.u.)^3
     number of atoms/cell      =            5
     number of atomic types    =            3
     number of electrons       =        39.00
     number of Kohn-Sham states=           24
     kinetic-energy cutoff     =      60.0000  Ry
     charge density cutoff     =     240.0000  Ry
     convergence threshold     =      1.0E-10
     mixing beta               =       0.7000
     number of iterations used =            8  plain     mixing
     Exchange-correlation      = LDA ( 1  1  0  0 0 0)

     celldm(1)=   7.288863  celldm(2)=   0.000000  celldm(3)=   0.000000
     celldm(4)=   0.000000  celldm(5)=   0.000000  celldm(6)=   0.000000

     crystal axes: (cart. coord. in units of alat)
               a(1) = (   0.973023   0.000000   0.000000 )  
               a(2) = (   0.000000   0.973023   0.000000 )  
               a(3) = (   0.000000   0.000000   0.973023 )  

     reciprocal axes: (cart. coord. in units 2 pi/alat)
               b(1) = (  1.027725  0.000000  0.000000 )  
               b(2) = (  0.000000  1.027725  0.000000 )  
               b(3) = (  0.000000  0.000000  1.027725 )  


     PseudoPot. # 1 for La read from file:
     ./La.pz-spfn-rrkjus_psl.1.0.0.UPF
     MD5 check sum: e4cc26dd351bb2aa33b11ee919d4576a
     Pseudo is Ultrasoft + core correction, Zval = 11.0
     Generated using "atomic" code by A. Dal Corso v.6.2.2
     Using radial grid of 1253 points,  8 beta functions with: 
                l(1) =   0
                l(2) =   0
                l(3) =   1
                l(4) =   1
                l(5) =   2
                l(6) =   2
                l(7) =   3
                l(8) =   3
     Q(r) pseudized with 0 coefficients 


     PseudoPot. # 2 for Ni read from file:
     ./Ni.pz-n-rrkjus_psl.0.1.UPF
     MD5 check sum: 4def80e42349afdd14834ce81d852c61
     Pseudo is Ultrasoft + core correction, Zval = 10.0
     Generated using "atomic" code by A. Dal Corso v.5.0.2 svn rev. 9415
     Using radial grid of 1195 points,  6 beta functions with: 
                l(1) =   0
                l(2) =   0
                l(3) =   1
                l(4) =   1
                l(5) =   2
                l(6) =   2
     Q(r) pseudized with 0 coefficients 


     PseudoPot. # 3 for O  read from file:
     ./O.pz-n-rrkjus_psl.0.1.UPF
     MD5 check sum: 6e384d5705d3ad042f52b90450e69d34
     Pseudo is Ultrasoft + core correction, Zval =  6.0
     Generated using "atomic" code by A. Dal Corso v.5.0.2 svn rev. 9415
     Using radial grid of 1095 points,  4 beta functions with: 
                l(1) =   0
                l(2) =   0
                l(3) =   1
                l(4) =   1
     Q(r) pseudized with 0 coefficients 


     atomic species   valence    mass     pseudopotential
        La            11.00   138.90550     La( 1.00)
        Ni            10.00    58.69340     Ni( 1.00)
        O              6.00    15.99940     O ( 1.00)

     48 Sym. Ops., with inversion, found



   Cartesian axes

     site n.     atom                  positions (alat units)
         1           La  tau(   1) = (   0.4865113   0.4865113   0.4865113  )
         2           Ni  tau(   2) = (   0.0000000   0.0000000   0.0000000  )
         3           O   tau(   3) = (   0.0000000   0.0000000   0.4865113  )
         4           O   tau(   4) = (   0.4865113   0.0000000   0.0000000  )
         5           O   tau(   5) = (   0.0000000   0.4865113   0.0000000  )

     number of k points=     4  gaussian smearing, width (Ry)=  0.0100
                       cart. coord. in units 2pi/alat
        k(    1) = (   0.1284657   0.1284657   0.1284657), wk =   0.2500000
        k(    2) = (   0.1284657   0.1284657   0.3853970), wk =   0.7500000
        k(    3) = (   0.1284657   0.3853970   0.3853970), wk =   0.7500000
        k(    4) = (   0.3853970   0.3853970   0.3853970), wk =   0.2500000

     Dense  grid:    22335 G-vectors     FFT dimensions: (  36,  36,  36)

     Estimated max dynamical RAM per process >      31.67 MB

     Estimated total dynamical RAM >     633.39 MB

     Check: negative/imaginary core charge=   -0.000477    0.000000

     Initial potential from superposition of free atoms

     starting charge   38.97328, renormalised to   39.00000
     Starting wfc are   41 randomized atomic wfcs

     Writing output data file LaNiO3.save

     total cpu time spent up to now is       15.2 secs

     Self-consistent Calculation

     iteration #  1     ecut=    60.00 Ry     beta= 0.70
     Davidson diagonalization with overlap
     ethr =  1.00E-06,  avg # of iterations = 11.0

     total cpu time spent up to now is       15.5 secs

     total energy              =    -325.32666561 Ry
     Harris-Foulkes estimate   =    -326.18238259 Ry
     estimated scf accuracy    <       1.08022989 Ry

     iteration #  2     ecut=    60.00 Ry     beta= 0.70
     Davidson diagonalization with overlap
     ethr =  2.77E-03,  avg # of iterations =  5.2

     total cpu time spent up to now is       15.7 secs

     total energy              =    -324.87668153 Ry
     Harris-Foulkes estimate   =    -327.24156040 Ry
     estimated scf accuracy    <       7.42739929 Ry

     iteration #  3     ecut=    60.00 Ry     beta= 0.70
     Davidson diagonalization with overlap
     ethr =  2.77E-03,  avg # of iterations =  4.0

     total cpu time spent up to now is       15.8 secs

     total energy              =    -325.89424506 Ry
     Harris-Foulkes estimate   =    -325.98544178 Ry
     estimated scf accuracy    <       0.26657282 Ry

     iteration #  4     ecut=    60.00 Ry     beta= 0.70
     Davidson diagonalization with overlap
     ethr =  6.84E-04,  avg # of iterations =  2.0

     total cpu time spent up to now is       15.9 secs

     total energy              =    -325.94089759 Ry
     Harris-Foulkes estimate   =    -325.94503035 Ry
     estimated scf accuracy    <       0.00880248 Ry

     iteration #  5     ecut=    60.00 Ry     beta= 0.70
     Davidson diagonalization with overlap
     ethr =  2.26E-05,  avg # of iterations =  4.0

     total cpu time spent up to now is       16.0 secs

     total energy              =    -325.94268636 Ry
     Harris-Foulkes estimate   =    -325.94382504 Ry
     estimated scf accuracy    <       0.00233230 Ry

     iteration #  6     ecut=    60.00 Ry     beta= 0.70
     Davidson diagonalization with overlap
     ethr =  5.98E-06,  avg # of iterations =  4.0

     total cpu time spent up to now is       16.2 secs

     total energy              =    -325.94324913 Ry
     Harris-Foulkes estimate   =    -325.94330550 Ry
     estimated scf accuracy    <       0.00013480 Ry

     iteration #  7     ecut=    60.00 Ry     beta= 0.70
     Davidson diagonalization with overlap
     ethr =  3.46E-07,  avg # of iterations =  5.8

     total cpu time spent up to now is       16.3 secs

     total energy              =    -325.94328924 Ry
     Harris-Foulkes estimate   =    -325.94329332 Ry
     estimated scf accuracy    <       0.00000714 Ry

     iteration #  8     ecut=    60.00 Ry     beta= 0.70
     Davidson diagonalization with overlap
     ethr =  1.83E-08,  avg # of iterations =  5.0

     total cpu time spent up to now is       16.5 secs

     total energy              =    -325.94329297 Ry
     Harris-Foulkes estimate   =    -325.94329356 Ry
     estimated scf accuracy    <       0.00000131 Ry

     iteration #  9     ecut=    60.00 Ry     beta= 0.70
     Davidson diagonalization with overlap
     ethr =  3.36E-09,  avg # of iterations =  3.0

     total cpu time spent up to now is       16.6 secs

     total energy              =    -325.94329320 Ry
     Harris-Foulkes estimate   =    -325.94329324 Ry
     estimated scf accuracy    <       0.00000013 Ry

     iteration # 10     ecut=    60.00 Ry     beta= 0.70
     Davidson diagonalization with overlap
     ethr =  3.44E-10,  avg # of iterations =  4.2

     total cpu time spent up to now is       16.7 secs

     total energy              =    -325.94329324 Ry
     Harris-Foulkes estimate   =    -325.94329325 Ry
     estimated scf accuracy    <       0.00000002 Ry

     iteration # 11     ecut=    60.00 Ry     beta= 0.70
     Davidson diagonalization with overlap
     ethr =  4.03E-11,  avg # of iterations =  3.0

     total cpu time spent up to now is       16.8 secs

     total energy              =    -325.94329324 Ry
     Harris-Foulkes estimate   =    -325.94329324 Ry
     estimated scf accuracy    <          1.5E-09 Ry

     iteration # 12     ecut=    60.00 Ry     beta= 0.70
     Davidson diagonalization with overlap
     ethr =  3.82E-12,  avg # of iterations =  4.0

     total cpu time spent up to now is       17.0 secs

     End of self-consistent calculation

          k = 0.1285 0.1285 0.1285 (  2812 PWs)   bands (ev):

   -17.8171  -5.7683  -4.1502  -4.1502  -1.2626  -1.2626  -0.9603   7.5663
     8.1210   8.1210   9.5240   9.5240  10.2509  10.8252  11.1494  11.1494
    11.7512  11.7512  11.7820  13.2025  13.2025  16.5413  16.5413  17.2399

          k = 0.1285 0.1285 0.3854 (  2810 PWs)   bands (ev):

   -17.7414  -5.9652  -4.4850  -4.0021  -1.3326  -0.9970  -0.5248   6.7705
     7.8230   7.9180   8.5369   8.8609   9.8535  10.3864  10.7177  10.7524
    11.7787  12.4919  12.5803  13.1013  14.5215  16.9212  17.1418  17.2288

          k = 0.1285 0.3854 0.3854 (  2795 PWs)   bands (ev):

   -17.6753  -5.4725  -4.8664  -4.2624  -1.3197  -0.9948  -0.7413   6.3015
     7.4178   7.4725   8.1706   8.5964   9.0439  10.6354  10.9868  11.7729
    12.4604  12.5126  12.5549  13.6098  15.7872  16.9823  17.0172  17.2478

          k = 0.3854 0.3854 0.3854 (  2818 PWs)   bands (ev):

   -17.6166  -4.9899  -4.4170  -4.4170  -1.8022  -1.8022  -1.3171   5.7827
     7.4235   7.4235   8.1826   8.6260   8.6260  11.5851  11.5851  11.8514
    12.7983  12.8838  12.8838  15.7670  15.7670  17.0821  17.0821  17.1390

     the Fermi energy is    13.2336 ev

!    total energy              =    -325.94329324 Ry
     Harris-Foulkes estimate   =    -325.94329324 Ry
     estimated scf accuracy    <          1.7E-11 Ry

     The total energy is the sum of the following terms:

     one-electron contribution =     -27.13983783 Ry
     hartree contribution      =      52.15833018 Ry
     xc contribution           =    -139.32856821 Ry
     ewald contribution        =    -211.63105463 Ry
     smearing contrib. (-TS)   =      -0.00216276 Ry

     convergence has been achieved in  12 iterations

     Forces acting on atoms (cartesian axes, Ry/au):

     atom    1 type  1   force =     0.00000000    0.00000000    0.00000000
     atom    2 type  2   force =     0.00000000    0.00000000    0.00000000
     atom    3 type  3   force =     0.00000000    0.00000000    0.00000000
     atom    4 type  3   force =     0.00000000    0.00000000    0.00000000
     atom    5 type  3   force =     0.00000000    0.00000000    0.00000000

     Total force =     0.000000     Total SCF correction =     0.000000


     Computing stress (Cartesian axis) and pressure

          total   stress  (Ry/bohr**3)                   (kbar)     P=    2.94
   0.00002000   0.00000000   0.00000000          2.94      0.00      0.00
   0.00000000   0.00002000   0.00000000          0.00      2.94      0.00
   0.00000000   0.00000000   0.00002000          0.00      0.00      2.94


     Writing output data file LaNiO3.save
 
     init_run     :      0.75s CPU      0.83s WALL (       2 calls)
     electrons    :      9.43s CPU     10.62s WALL (       5 calls)
     update_pot   :      0.72s CPU      0.72s WALL (       3 calls)
     forces       :      0.69s CPU      0.72s WALL (       5 calls)
     stress       :      1.83s CPU      1.87s WALL (       5 calls)

     Called by init_run:
     wfcinit      :      0.06s CPU      0.06s WALL (       2 calls)
     potinit      :      0.07s CPU      0.07s WALL (       2 calls)

     Called by electrons:
     c_bands      :      6.16s CPU      6.74s WALL (      80 calls)
     sum_band     :      1.83s CPU      2.11s WALL (      80 calls)
     v_of_rho     :      0.02s CPU      0.02s WALL (      85 calls)
     newd         :      1.43s CPU      1.69s WALL (      85 calls)
     mix_rho      :      0.05s CPU      0.05s WALL (      80 calls)

     Called by c_bands:
     init_us_2    :      0.08s CPU      0.09s WALL (     688 calls)
     cegterg      :      5.85s CPU      6.40s WALL (     320 calls)

     Called by sum_band:
     sum_band:bec :      0.01s CPU      0.01s WALL (     320 calls)
     addusdens    :      1.35s CPU      1.60s WALL (      80 calls)

     Called by *egterg:
     h_psi        :      2.21s CPU      2.33s WALL (    1449 calls)
     s_psi        :      0.08s CPU      0.09s WALL (    1449 calls)
     g_psi        :      0.02s CPU      0.02s WALL (    1121 calls)
     cdiaghg      :      2.60s CPU      2.84s WALL (    1429 calls)

     Called by h_psi:
     h_psi:pot    :      2.20s CPU      2.32s WALL (    1449 calls)
     h_psi:calbec :      0.13s CPU      0.14s WALL (    1449 calls)
     vloc_psi     :      1.98s CPU      2.09s WALL (    1449 calls)
     add_vuspsi   :      0.09s CPU      0.09s WALL (    1449 calls)

     General routines
     calbec       :      0.17s CPU      0.19s WALL (    1869 calls)
     fft          :      0.07s CPU      0.10s WALL (     548 calls)
     fftw         :      2.18s CPU      2.29s WALL (   50424 calls)
 
     Parallel routines
     fft_scatt_xy :      0.15s CPU      0.15s WALL (   50972 calls)
     fft_scatt_yz :      1.17s CPU      1.24s WALL (   50972 calls)
 
     PWSCF        :    15.82s CPU        17.80s WALL

 
   This run was terminated on:  10:46:29   1Jul2019            

=------------------------------------------------------------------------------=
   JOB DONE.
=------------------------------------------------------------------------------=
