
     Program PWSCF v.6.2 (svn rev. 14038) starts on 27Jun2019 at 15:51:10 

     This program is part of the open-source Quantum ESPRESSO suite
     for quantum simulation of materials; please cite
         "P. Giannozzi et al., J. Phys.:Condens. Matter 21 395502 (2009);
         "P. Giannozzi et al., J. Phys.:Condens. Matter 29 465901 (2017);
          URL http://www.quantum-espresso.org", 
     in publications or presentations arising from this work. More details at
     http://www.quantum-espresso.org/quote

     Parallel version (MPI & OpenMP), running on      20 processor cores
     Number of MPI processes:                20
     Threads/MPI process:                     1

     MPI processes distributed on     1 nodes
     R & G space division:  proc/nbgrp/npool/nimage =      20
     Reading input from LaNiO3.in

     Current dimensions of program PWSCF are:
     Max number of different atomic species (ntypx) = 10
     Max number of k-points (npk) =  40000
     Max angular momentum in pseudopotentials (lmaxx) =  3
               file La.pz-spfn-rrkjus_psl.1.0.0.UPF: wavefunction(s)  4F renormalized
               file Ni.pz-n-rrkjus_psl.0.1.UPF: wavefunction(s)  3D renormalized

     Subspace diagonalization in iterative solution of the eigenvalue problem:
     one sub-group per band group will be used
     scalapack distributed-memory algorithm (size of sub-group:  3*  3 procs)

     Found symmetry operation: I + ( -0.3333  0.3333  0.3333)
     This is a supercell, fractional translations are disabled
 
     Parallelization info
     --------------------
     sticks:   dense  smooth     PW     G-vecs:    dense   smooth      PW
     Min          43      43     12                 2519     2519     372
     Max          45      45     13                 2525     2525     379
     Sum         871     871    253                50469    50469    7473
 


     bravais-lattice index     =            4
     lattice parameter (alat)  =      10.3056  a.u.
     unit-cell volume          =    2277.1707 (a.u.)^3
     number of atoms/cell      =           30
     number of atomic types    =            3
     number of electrons       =       234.00
     number of Kohn-Sham states=          117
     kinetic-energy cutoff     =      30.0000  Ry
     charge density cutoff     =     120.0000  Ry
     convergence threshold     =      1.0E-06
     mixing beta               =       0.7000
     number of iterations used =            8  plain     mixing
     Exchange-correlation      = LDA ( 1  1  0  0 0 0)

     celldm(1)=  10.305621  celldm(2)=   0.000000  celldm(3)=   2.402384
     celldm(4)=   0.000000  celldm(5)=   0.000000  celldm(6)=   0.000000

     crystal axes: (cart. coord. in units of alat)
               a(1) = (   1.000000   0.000000   0.000000 )  
               a(2) = (  -0.500000   0.866025   0.000000 )  
               a(3) = (   0.000000   0.000000   2.402384 )  

     reciprocal axes: (cart. coord. in units 2 pi/alat)
               b(1) = (  1.000000  0.577350  0.000000 )  
               b(2) = (  0.000000  1.154701  0.000000 )  
               b(3) = (  0.000000  0.000000  0.416253 )  


     PseudoPot. # 1 for La read from file:
     ./La.pz-spfn-rrkjus_psl.1.0.0.UPF
     MD5 check sum: e4cc26dd351bb2aa33b11ee919d4576a
     Pseudo is Ultrasoft + core correction, Zval = 11.0
     Generated using "atomic" code by A. Dal Corso v.6.2.2
     Using radial grid of 1253 points,  8 beta functions with: 
                l(1) =   0
                l(2) =   0
                l(3) =   1
                l(4) =   1
                l(5) =   2
                l(6) =   2
                l(7) =   3
                l(8) =   3
     Q(r) pseudized with 0 coefficients 


     PseudoPot. # 2 for Ni read from file:
     ./Ni.pz-n-rrkjus_psl.0.1.UPF
     MD5 check sum: 4def80e42349afdd14834ce81d852c61
     Pseudo is Ultrasoft + core correction, Zval = 10.0
     Generated using "atomic" code by A. Dal Corso v.5.0.2 svn rev. 9415
     Using radial grid of 1195 points,  6 beta functions with: 
                l(1) =   0
                l(2) =   0
                l(3) =   1
                l(4) =   1
                l(5) =   2
                l(6) =   2
     Q(r) pseudized with 0 coefficients 


     PseudoPot. # 3 for O  read from file:
     ./O.pz-n-rrkjus_psl.0.1.UPF
     MD5 check sum: 6e384d5705d3ad042f52b90450e69d34
     Pseudo is Ultrasoft + core correction, Zval =  6.0
     Generated using "atomic" code by A. Dal Corso v.5.0.2 svn rev. 9415
     Using radial grid of 1095 points,  4 beta functions with: 
                l(1) =   0
                l(2) =   0
                l(3) =   1
                l(4) =   1
     Q(r) pseudized with 0 coefficients 


     atomic species   valence    mass     pseudopotential
        La            11.00   138.90550     La( 1.00)
        Ni            10.00    58.69340     Ni( 1.00)
        O              6.00    15.99940     O ( 1.00)

      6 Sym. Ops., with inversion, found



   Cartesian axes

     site n.     atom                  positions (alat units)
         1           La  tau(   1) = (   0.0000000   0.0000000   0.6005959  )
         2           La  tau(   2) = (   0.0000000   0.0000000   1.8017878  )
         3           La  tau(   3) = (   0.5000005   0.2886748   1.4013897  )
         4           La  tau(   4) = (   0.5000005   0.2886748   0.2001978  )
         5           La  tau(   5) = (  -0.0000005   0.5773506   2.2021859  )
         6           La  tau(   6) = (  -0.0000005   0.5773506   1.0009940  )
         7           Ni  tau(   7) = (   0.0000000   0.0000000   0.0000000  )
         8           Ni  tau(   8) = (   0.0000000   0.0000000   1.2011919  )
         9           Ni  tau(   9) = (   0.5000005   0.2886748   0.8007938  )
        10           Ni  tau(  10) = (   0.5000005   0.2886748   2.0019857  )
        11           Ni  tau(  11) = (  -0.0000005   0.5773506   1.6015900  )
        12           Ni  tau(  12) = (  -0.0000005   0.5773506   0.4003981  )
        13           O   tau(  13) = (   0.5468000   0.0000000   0.6005959  )
        14           O   tau(  14) = (  -0.2734000   0.4735427   0.6005959  )
        15           O   tau(  15) = (   0.2266000   0.3924827   0.6005959  )
        16           O   tau(  16) = (   0.4532000   0.0000000   1.8017878  )
        17           O   tau(  17) = (  -0.2266000   0.3924827   1.8017878  )
        18           O   tau(  18) = (   0.2734000   0.4735427   1.8017878  )
        19           O   tau(  19) = (   0.0468005   0.2886748   1.4013897  )
        20           O   tau(  20) = (   0.2266005   0.7622175   1.4013897  )
        21           O   tau(  21) = (  -0.2733995   0.6811576   1.4013897  )
        22           O   tau(  22) = (  -0.0467995   0.2886748   0.2001978  )
        23           O   tau(  23) = (   0.2734005   0.6811576   0.2001978  )
        24           O   tau(  24) = (  -0.2265995   0.7622175   0.2001978  )
        25           O   tau(  25) = (   0.5467995   0.5773506   2.2021859  )
        26           O   tau(  26) = (   0.2265995   0.1848678   2.2021859  )
        27           O   tau(  27) = (   0.7265995   0.1038079   2.2021859  )
        28           O   tau(  28) = (   0.4531995   0.5773506   1.0009940  )
        29           O   tau(  29) = (   0.2733995   0.1038079   1.0009940  )
        30           O   tau(  30) = (   0.7733995   0.1848678   1.0009940  )

     number of k points=     4
                       cart. coord. in units 2pi/alat
        k(    1) = (   0.2500000   0.4330127   0.1040633), wk =   0.5000000
        k(    2) = (   0.2500000  -0.1443376   0.1040633), wk =   0.5000000
        k(    3) = (  -0.2500000  -0.4330127   0.1040633), wk =   0.5000000
        k(    4) = (  -0.2500000   0.1443376   0.1040633), wk =   0.5000000

     Dense  grid:    50469 G-vectors     FFT dimensions: (  36,  36,  90)

     Estimated max dynamical RAM per process >      39.04 MB

     Estimated total dynamical RAM >     780.89 MB

     Check: negative/imaginary core charge=   -0.004320    0.000000

     Initial potential from superposition of free atoms

     starting charge  233.83970, renormalised to  234.00000
     Starting wfc are  246 randomized atomic wfcs

     total cpu time spent up to now is        3.3 secs

     Self-consistent Calculation

     iteration #  1     ecut=    30.00 Ry     beta= 0.70
     Davidson diagonalization with overlap
     ethr =  1.00E-02,  avg # of iterations =  2.0

     total cpu time spent up to now is        4.1 secs

     total energy              =   -1951.67523641 Ry
     Harris-Foulkes estimate   =   -1956.13246170 Ry
     estimated scf accuracy    <       5.73167124 Ry

     iteration #  2     ecut=    30.00 Ry     beta= 0.70
     Davidson diagonalization with overlap
     ethr =  2.45E-03,  avg # of iterations =  4.0

     total cpu time spent up to now is        6.0 secs

     total energy              =   -1949.55892357 Ry
     Harris-Foulkes estimate   =   -1961.93431348 Ry
     estimated scf accuracy    <      39.06823977 Ry

     iteration #  3     ecut=    30.00 Ry     beta= 0.70
     Davidson diagonalization with overlap
     ethr =  2.45E-03,  avg # of iterations =  5.8

     total cpu time spent up to now is        8.1 secs

     total energy              =   -1954.60846557 Ry
     Harris-Foulkes estimate   =   -1955.25699562 Ry
     estimated scf accuracy    <       1.85213908 Ry

     iteration #  4     ecut=    30.00 Ry     beta= 0.70
     Davidson diagonalization with overlap
     ethr =  7.92E-04,  avg # of iterations =  5.0

     total cpu time spent up to now is        9.8 secs

     total energy              =   -1954.13480128 Ry
     Harris-Foulkes estimate   =   -1955.46335742 Ry
     estimated scf accuracy    <      35.21525915 Ry

     iteration #  5     ecut=    30.00 Ry     beta= 0.70
     Davidson diagonalization with overlap
     ethr =  7.92E-04,  avg # of iterations =  4.5

     total cpu time spent up to now is       11.2 secs

     total energy              =   -1954.84261947 Ry
     Harris-Foulkes estimate   =   -1954.98333049 Ry
     estimated scf accuracy    <       0.81655028 Ry

     iteration #  6     ecut=    30.00 Ry     beta= 0.70
     Davidson diagonalization with overlap
     ethr =  3.49E-04,  avg # of iterations =  5.2

     total cpu time spent up to now is       12.5 secs

     total energy              =   -1954.84770429 Ry
     Harris-Foulkes estimate   =   -1955.02306224 Ry
     estimated scf accuracy    <       2.68361118 Ry

     iteration #  7     ecut=    30.00 Ry     beta= 0.70
     Davidson diagonalization with overlap
     ethr =  3.49E-04,  avg # of iterations =  4.8

     total cpu time spent up to now is       13.7 secs

     total energy              =   -1954.89849676 Ry
     Harris-Foulkes estimate   =   -1954.98001178 Ry
     estimated scf accuracy    <       0.76900614 Ry

     iteration #  8     ecut=    30.00 Ry     beta= 0.70
     Davidson diagonalization with overlap
     ethr =  3.29E-04,  avg # of iterations =  5.2

     total cpu time spent up to now is       14.9 secs

     total energy              =   -1954.93197469 Ry
     Harris-Foulkes estimate   =   -1954.93768079 Ry
     estimated scf accuracy    <       0.06511957 Ry

     iteration #  9     ecut=    30.00 Ry     beta= 0.70
     Davidson diagonalization with overlap
     ethr =  2.78E-05,  avg # of iterations =  5.5

     total cpu time spent up to now is       16.4 secs

     total energy              =   -1954.94012351 Ry
     Harris-Foulkes estimate   =   -1954.94472161 Ry
     estimated scf accuracy    <       0.07168636 Ry

     iteration # 10     ecut=    30.00 Ry     beta= 0.70
     Davidson diagonalization with overlap
     ethr =  2.78E-05,  avg # of iterations =  1.0

     total cpu time spent up to now is       17.1 secs

     total energy              =   -1954.93758306 Ry
     Harris-Foulkes estimate   =   -1954.94122543 Ry
     estimated scf accuracy    <       0.05093445 Ry

     iteration # 11     ecut=    30.00 Ry     beta= 0.70
     Davidson diagonalization with overlap
     ethr =  2.18E-05,  avg # of iterations =  6.5

     total cpu time spent up to now is       18.4 secs

     total energy              =   -1954.94042539 Ry
     Harris-Foulkes estimate   =   -1954.94057204 Ry
     estimated scf accuracy    <       0.00099301 Ry

     iteration # 12     ecut=    30.00 Ry     beta= 0.70
     Davidson diagonalization with overlap
     ethr =  4.24E-07,  avg # of iterations =  9.5

     total cpu time spent up to now is       21.2 secs

     total energy              =   -1954.94231810 Ry
     Harris-Foulkes estimate   =   -1954.94579868 Ry
     estimated scf accuracy    <       0.23412786 Ry

     iteration # 13     ecut=    30.00 Ry     beta= 0.70
     Davidson diagonalization with overlap
     ethr =  4.24E-07,  avg # of iterations =  7.2

     total cpu time spent up to now is       23.1 secs

     total energy              =   -1954.94395264 Ry
     Harris-Foulkes estimate   =   -1954.94296323 Ry
     estimated scf accuracy    <       0.10719693 Ry

     iteration # 14     ecut=    30.00 Ry     beta= 0.70
     Davidson diagonalization with overlap
     ethr =  4.24E-07,  avg # of iterations =  8.0

     total cpu time spent up to now is       24.6 secs

     total energy              =   -1954.94382260 Ry
     Harris-Foulkes estimate   =   -1954.94410470 Ry
     estimated scf accuracy    <       0.15840820 Ry

     iteration # 15     ecut=    30.00 Ry     beta= 0.70
     Davidson diagonalization with overlap
     ethr =  4.24E-07,  avg # of iterations =  1.0

     total cpu time spent up to now is       25.3 secs

     total energy              =   -1954.94347992 Ry
     Harris-Foulkes estimate   =   -1954.94382979 Ry
     estimated scf accuracy    <       0.15666904 Ry

     iteration # 16     ecut=    30.00 Ry     beta= 0.70
     Davidson diagonalization with overlap
     ethr =  4.24E-07,  avg # of iterations =  4.8

     total cpu time spent up to now is       26.4 secs

     total energy              =   -1954.93836599 Ry
     Harris-Foulkes estimate   =   -1954.94349343 Ry
     estimated scf accuracy    <       0.14570949 Ry

     iteration # 17     ecut=    30.00 Ry     beta= 0.70
     Davidson diagonalization with overlap
     ethr =  4.24E-07,  avg # of iterations =  8.2

     total cpu time spent up to now is       28.9 secs

     total energy              =   -1954.94128517 Ry
     Harris-Foulkes estimate   =   -1954.94311285 Ry
     estimated scf accuracy    <       0.11703481 Ry

     iteration # 18     ecut=    30.00 Ry     beta= 0.70
     Davidson diagonalization with overlap
     ethr =  4.24E-07,  avg # of iterations =  8.8

     total cpu time spent up to now is       30.6 secs

     total energy              =   -1954.94134185 Ry
     Harris-Foulkes estimate   =   -1954.94169015 Ry
     estimated scf accuracy    <       0.02103946 Ry

     iteration # 19     ecut=    30.00 Ry     beta= 0.70
     Davidson diagonalization with overlap
     ethr =  4.24E-07,  avg # of iterations = 13.5

     total cpu time spent up to now is       32.6 secs

     total energy              =   -1954.94141566 Ry
     Harris-Foulkes estimate   =   -1954.94176867 Ry
     estimated scf accuracy    <       0.04048369 Ry

     iteration # 20     ecut=    30.00 Ry     beta= 0.70
     Davidson diagonalization with overlap
     c_bands:  1 eigenvalues not converged
     ethr =  4.24E-07,  avg # of iterations = 11.5

     total cpu time spent up to now is       34.3 secs

     total energy              =   -1954.94153009 Ry
     Harris-Foulkes estimate   =   -1954.94152745 Ry
     estimated scf accuracy    <       0.00186210 Ry

     iteration # 21     ecut=    30.00 Ry     beta= 0.70
     Davidson diagonalization with overlap
     ethr =  4.24E-07,  avg # of iterations =  1.0

     total cpu time spent up to now is       35.1 secs

     total energy              =   -1954.94154635 Ry
     Harris-Foulkes estimate   =   -1954.94153245 Ry
     estimated scf accuracy    <       0.00183673 Ry

     iteration # 22     ecut=    30.00 Ry     beta= 0.70
     Davidson diagonalization with overlap
     ethr =  4.24E-07,  avg # of iterations =  1.0

     total cpu time spent up to now is       35.8 secs

     total energy              =   -1954.94158949 Ry
     Harris-Foulkes estimate   =   -1954.94154803 Ry
     estimated scf accuracy    <       0.00191116 Ry

     iteration # 23     ecut=    30.00 Ry     beta= 0.70
     Davidson diagonalization with overlap
     ethr =  4.24E-07,  avg # of iterations =  9.8

     total cpu time spent up to now is       37.4 secs

     total energy              =   -1954.94159669 Ry
     Harris-Foulkes estimate   =   -1954.94185700 Ry
     estimated scf accuracy    <       0.04778204 Ry

     iteration # 24     ecut=    30.00 Ry     beta= 0.70
     Davidson diagonalization with overlap
     ethr =  4.24E-07,  avg # of iterations =  1.0

     total cpu time spent up to now is       38.1 secs

     total energy              =   -1954.94132618 Ry
     Harris-Foulkes estimate   =   -1954.94160261 Ry
     estimated scf accuracy    <       0.04609696 Ry

     iteration # 25     ecut=    30.00 Ry     beta= 0.70
     Davidson diagonalization with overlap
     ethr =  4.24E-07,  avg # of iterations = 13.5

     total cpu time spent up to now is       40.1 secs

     total energy              =   -1954.94159849 Ry
     Harris-Foulkes estimate   =   -1954.94167077 Ry
     estimated scf accuracy    <       0.02406417 Ry

     iteration # 26     ecut=    30.00 Ry     beta= 0.70
     Davidson diagonalization with overlap
     ethr =  4.24E-07,  avg # of iterations =  1.0

     total cpu time spent up to now is       40.8 secs

     total energy              =   -1954.94130642 Ry
     Harris-Foulkes estimate   =   -1954.94160113 Ry
     estimated scf accuracy    <       0.02366312 Ry

     iteration # 27     ecut=    30.00 Ry     beta= 0.70
     Davidson diagonalization with overlap
     ethr =  4.24E-07,  avg # of iterations = 11.8

     total cpu time spent up to now is       42.6 secs

     total energy              =   -1954.94181079 Ry
     Harris-Foulkes estimate   =   -1954.94182127 Ry
     estimated scf accuracy    <       0.04664180 Ry

     iteration # 28     ecut=    30.00 Ry     beta= 0.70
     Davidson diagonalization with overlap
     ethr =  4.24E-07,  avg # of iterations =  1.0

     total cpu time spent up to now is       43.4 secs

     total energy              =   -1954.94171226 Ry
     Harris-Foulkes estimate   =   -1954.94181283 Ry
     estimated scf accuracy    <       0.04686972 Ry

     iteration # 29     ecut=    30.00 Ry     beta= 0.70
     Davidson diagonalization with overlap
     ethr =  4.24E-07,  avg # of iterations =  1.0

     total cpu time spent up to now is       44.1 secs

     total energy              =   -1954.94153693 Ry
     Harris-Foulkes estimate   =   -1954.94171332 Ry
     estimated scf accuracy    <       0.04620264 Ry

     iteration # 30     ecut=    30.00 Ry     beta= 0.70
     Davidson diagonalization with overlap
     ethr =  4.24E-07,  avg # of iterations =  3.2

     total cpu time spent up to now is       45.0 secs

     total energy              =   -1954.94152990 Ry
     Harris-Foulkes estimate   =   -1954.94154523 Ry
     estimated scf accuracy    <       0.04106789 Ry

     iteration # 31     ecut=    30.00 Ry     beta= 0.70
     Davidson diagonalization with overlap
     ethr =  4.24E-07,  avg # of iterations =  2.2

     total cpu time spent up to now is       45.9 secs

     total energy              =   -1954.94151269 Ry
     Harris-Foulkes estimate   =   -1954.94153470 Ry
     estimated scf accuracy    <       0.03875898 Ry

     iteration # 32     ecut=    30.00 Ry     beta= 0.70
     Davidson diagonalization with overlap
     ethr =  4.24E-07,  avg # of iterations =  1.0

     total cpu time spent up to now is       46.6 secs

     total energy              =   -1954.94142767 Ry
     Harris-Foulkes estimate   =   -1954.94151452 Ry
     estimated scf accuracy    <       0.03814176 Ry

     iteration # 33     ecut=    30.00 Ry     beta= 0.70
     Davidson diagonalization with overlap
     ethr =  4.24E-07,  avg # of iterations =  5.2

     total cpu time spent up to now is       47.8 secs

     total energy              =   -1954.94149449 Ry
     Harris-Foulkes estimate   =   -1954.94151727 Ry
     estimated scf accuracy    <       0.00308077 Ry

     iteration # 34     ecut=    30.00 Ry     beta= 0.70
     Davidson diagonalization with overlap
     ethr =  4.24E-07,  avg # of iterations =  4.0

     total cpu time spent up to now is       48.8 secs

     total energy              =   -1954.94159044 Ry
     Harris-Foulkes estimate   =   -1954.94164312 Ry
     estimated scf accuracy    <       0.01280585 Ry

     iteration # 35     ecut=    30.00 Ry     beta= 0.70
     Davidson diagonalization with overlap
     ethr =  4.24E-07,  avg # of iterations =  1.0

     total cpu time spent up to now is       49.5 secs

     total energy              =   -1954.94145986 Ry
     Harris-Foulkes estimate   =   -1954.94159223 Ry
     estimated scf accuracy    <       0.01253802 Ry

     iteration # 36     ecut=    30.00 Ry     beta= 0.70
     Davidson diagonalization with overlap
     ethr =  4.24E-07,  avg # of iterations =  8.8

     total cpu time spent up to now is       51.0 secs

     total energy              =   -1954.94167308 Ry
     Harris-Foulkes estimate   =   -1954.94168286 Ry
     estimated scf accuracy    <       0.02815021 Ry

     iteration # 37     ecut=    30.00 Ry     beta= 0.70
     Davidson diagonalization with overlap
     ethr =  4.24E-07,  avg # of iterations =  1.0

     total cpu time spent up to now is       51.8 secs

     total energy              =   -1954.94166852 Ry
     Harris-Foulkes estimate   =   -1954.94167425 Ry
     estimated scf accuracy    <       0.02813598 Ry

     iteration # 38     ecut=    30.00 Ry     beta= 0.70
     Davidson diagonalization with overlap
     ethr =  4.24E-07,  avg # of iterations =  1.0

     total cpu time spent up to now is       52.5 secs

     total energy              =   -1954.94152992 Ry
     Harris-Foulkes estimate   =   -1954.94166898 Ry
     estimated scf accuracy    <       0.02826734 Ry

     iteration # 39     ecut=    30.00 Ry     beta= 0.70
     Davidson diagonalization with overlap
     ethr =  4.24E-07,  avg # of iterations =  1.0

     total cpu time spent up to now is       53.3 secs

     total energy              =   -1954.94167407 Ry
     Harris-Foulkes estimate   =   -1954.94153194 Ry
     estimated scf accuracy    <       0.02708907 Ry

     iteration # 40     ecut=    30.00 Ry     beta= 0.70
     Davidson diagonalization with overlap
     ethr =  4.24E-07,  avg # of iterations =  1.0

     total cpu time spent up to now is       54.0 secs

     total energy              =   -1954.94178446 Ry
     Harris-Foulkes estimate   =   -1954.94167763 Ry
     estimated scf accuracy    <       0.02774482 Ry

     iteration # 41     ecut=    30.00 Ry     beta= 0.70
     Davidson diagonalization with overlap
     ethr =  4.24E-07,  avg # of iterations =  1.0

     total cpu time spent up to now is       54.8 secs

     total energy              =   -1954.94176611 Ry
     Harris-Foulkes estimate   =   -1954.94178800 Ry
     estimated scf accuracy    <       0.02912823 Ry

     iteration # 42     ecut=    30.00 Ry     beta= 0.70
     Davidson diagonalization with overlap
     ethr =  4.24E-07,  avg # of iterations =  1.0

     total cpu time spent up to now is       55.5 secs

     total energy              =   -1954.94170229 Ry
     Harris-Foulkes estimate   =   -1954.94176749 Ry
     estimated scf accuracy    <       0.02935063 Ry

     iteration # 43     ecut=    30.00 Ry     beta= 0.70
     Davidson diagonalization with overlap
     ethr =  4.24E-07,  avg # of iterations =  1.0

     total cpu time spent up to now is       56.3 secs

     total energy              =   -1954.94169165 Ry
     Harris-Foulkes estimate   =   -1954.94170292 Ry
     estimated scf accuracy    <       0.02922606 Ry

     iteration # 44     ecut=    30.00 Ry     beta= 0.70
     Davidson diagonalization with overlap
     ethr =  4.24E-07,  avg # of iterations =  1.0

     total cpu time spent up to now is       57.0 secs

     total energy              =   -1954.94263031 Ry
     Harris-Foulkes estimate   =   -1954.94169185 Ry
     estimated scf accuracy    <       0.02921053 Ry

     iteration # 45     ecut=    30.00 Ry     beta= 0.70
     Davidson diagonalization with overlap
     ethr =  4.24E-07,  avg # of iterations =  6.8

     total cpu time spent up to now is       59.5 secs

     total energy              =   -1954.94262928 Ry
     Harris-Foulkes estimate   =   -1954.94508209 Ry
     estimated scf accuracy    <       0.15287243 Ry

     iteration # 46     ecut=    30.00 Ry     beta= 0.70
     Davidson diagonalization with overlap
     ethr =  4.24E-07,  avg # of iterations =  8.2

     total cpu time spent up to now is       61.3 secs

     total energy              =   -1954.93952496 Ry
     Harris-Foulkes estimate   =   -1954.94324566 Ry
     estimated scf accuracy    <       0.03514653 Ry

     iteration # 47     ecut=    30.00 Ry     beta= 0.70
     Davidson diagonalization with overlap
     ethr =  4.24E-07,  avg # of iterations =  7.2

     total cpu time spent up to now is       63.9 secs

     total energy              =   -1954.94191231 Ry
     Harris-Foulkes estimate   =   -1954.94282918 Ry
     estimated scf accuracy    <       0.09927277 Ry

     iteration # 48     ecut=    30.00 Ry     beta= 0.70
     Davidson diagonalization with overlap
     ethr =  4.24E-07,  avg # of iterations = 11.2

     total cpu time spent up to now is       65.7 secs

     total energy              =   -1954.94152459 Ry
     Harris-Foulkes estimate   =   -1954.94203618 Ry
     estimated scf accuracy    <       0.06271733 Ry

     iteration # 49     ecut=    30.00 Ry     beta= 0.70
     Davidson diagonalization with overlap
     ethr =  4.24E-07,  avg # of iterations =  7.8

     total cpu time spent up to now is       67.0 secs

     total energy              =   -1954.94150745 Ry
     Harris-Foulkes estimate   =   -1954.94157212 Ry
     estimated scf accuracy    <       0.04393781 Ry

     iteration # 50     ecut=    30.00 Ry     beta= 0.70
     Davidson diagonalization with overlap
     ethr =  4.24E-07,  avg # of iterations =  1.0

     total cpu time spent up to now is       67.8 secs

     total energy              =   -1954.94144207 Ry
     Harris-Foulkes estimate   =   -1954.94151131 Ry
     estimated scf accuracy    <       0.04299681 Ry

     iteration # 51     ecut=    30.00 Ry     beta= 0.70
     Davidson diagonalization with overlap
     ethr =  4.24E-07,  avg # of iterations =  1.0

     total cpu time spent up to now is       68.5 secs

     total energy              =   -1954.94120632 Ry
     Harris-Foulkes estimate   =   -1954.94144456 Ry
     estimated scf accuracy    <       0.04203830 Ry

     iteration # 52     ecut=    30.00 Ry     beta= 0.70
     Davidson diagonalization with overlap
     ethr =  4.24E-07,  avg # of iterations = 12.0

     total cpu time spent up to now is       70.4 secs

     total energy              =   -1954.94183913 Ry
     Harris-Foulkes estimate   =   -1954.94176293 Ry
     estimated scf accuracy    <       0.03922819 Ry

     iteration # 53     ecut=    30.00 Ry     beta= 0.70
     Davidson diagonalization with overlap
     ethr =  4.24E-07,  avg # of iterations =  1.0

     total cpu time spent up to now is       71.1 secs

     total energy              =   -1954.94164425 Ry
     Harris-Foulkes estimate   =   -1954.94184156 Ry
     estimated scf accuracy    <       0.04013581 Ry

     iteration # 54     ecut=    30.00 Ry     beta= 0.70
     Davidson diagonalization with overlap
     ethr =  4.24E-07,  avg # of iterations =  1.0

     total cpu time spent up to now is       71.9 secs

     total energy              =   -1954.94163106 Ry
     Harris-Foulkes estimate   =   -1954.94164618 Ry
     estimated scf accuracy    <       0.03922520 Ry

     iteration # 55     ecut=    30.00 Ry     beta= 0.70
     Davidson diagonalization with overlap
     ethr =  4.24E-07,  avg # of iterations =  1.0

     total cpu time spent up to now is       72.6 secs

     total energy              =   -1954.94181086 Ry
     Harris-Foulkes estimate   =   -1954.94163177 Ry
     estimated scf accuracy    <       0.03892526 Ry

     iteration # 56     ecut=    30.00 Ry     beta= 0.70
     Davidson diagonalization with overlap
     ethr =  4.24E-07,  avg # of iterations =  1.0

     total cpu time spent up to now is       73.3 secs

     total energy              =   -1954.94173606 Ry
     Harris-Foulkes estimate   =   -1954.94181248 Ry
     estimated scf accuracy    <       0.04005599 Ry

     iteration # 57     ecut=    30.00 Ry     beta= 0.70
     Davidson diagonalization with overlap
     ethr =  4.24E-07,  avg # of iterations =  1.0

     total cpu time spent up to now is       74.1 secs

     total energy              =   -1954.94134510 Ry
     Harris-Foulkes estimate   =   -1954.94173771 Ry
     estimated scf accuracy    <       0.03987749 Ry

     iteration # 58     ecut=    30.00 Ry     beta= 0.70
     Davidson diagonalization with overlap
     ethr =  4.24E-07,  avg # of iterations = 11.0

     total cpu time spent up to now is       75.8 secs

     total energy              =   -1954.94149050 Ry
     Harris-Foulkes estimate   =   -1954.94166936 Ry
     estimated scf accuracy    <       0.02362716 Ry

     iteration # 59     ecut=    30.00 Ry     beta= 0.70
     Davidson diagonalization with overlap
     ethr =  4.24E-07,  avg # of iterations =  1.0

     total cpu time spent up to now is       76.5 secs

     total energy              =   -1954.94146919 Ry
     Harris-Foulkes estimate   =   -1954.94149434 Ry
     estimated scf accuracy    <       0.02248675 Ry

     iteration # 60     ecut=    30.00 Ry     beta= 0.70
     Davidson diagonalization with overlap
     ethr =  4.24E-07,  avg # of iterations =  5.5

     total cpu time spent up to now is       77.7 secs

     total energy              =   -1954.94138722 Ry
     Harris-Foulkes estimate   =   -1954.94148019 Ry
     estimated scf accuracy    <       0.01822493 Ry

     iteration # 61     ecut=    30.00 Ry     beta= 0.70
     Davidson diagonalization with overlap
     ethr =  4.24E-07,  avg # of iterations =  1.0

     total cpu time spent up to now is       78.4 secs

     total energy              =   -1954.94137433 Ry
     Harris-Foulkes estimate   =   -1954.94138974 Ry
     estimated scf accuracy    <       0.01738797 Ry

     iteration # 62     ecut=    30.00 Ry     beta= 0.70
     Davidson diagonalization with overlap
     ethr =  4.24E-07,  avg # of iterations =  1.0

     total cpu time spent up to now is       79.1 secs

     total energy              =   -1954.94130163 Ry
     Harris-Foulkes estimate   =   -1954.94137632 Ry
     estimated scf accuracy    <       0.01698998 Ry

     iteration # 63     ecut=    30.00 Ry     beta= 0.70
     Davidson diagonalization with overlap
     ethr =  4.24E-07,  avg # of iterations =  9.8

     total cpu time spent up to now is       80.7 secs

     total energy              =   -1954.94181553 Ry
     Harris-Foulkes estimate   =   -1954.94188087 Ry
     estimated scf accuracy    <       0.04786367 Ry

     iteration # 64     ecut=    30.00 Ry     beta= 0.70
     Davidson diagonalization with overlap
     ethr =  4.24E-07,  avg # of iterations =  1.0

     total cpu time spent up to now is       81.5 secs

     total energy              =   -1954.94175824 Ry
     Harris-Foulkes estimate   =   -1954.94181670 Ry
     estimated scf accuracy    <       0.04776588 Ry

     iteration # 65     ecut=    30.00 Ry     beta= 0.70
     Davidson diagonalization with overlap
     ethr =  4.24E-07,  avg # of iterations =  1.0

     total cpu time spent up to now is       82.2 secs

     total energy              =   -1954.94175546 Ry
     Harris-Foulkes estimate   =   -1954.94175905 Ry
     estimated scf accuracy    <       0.04734175 Ry

     iteration # 66     ecut=    30.00 Ry     beta= 0.70
     Davidson diagonalization with overlap
     ethr =  4.24E-07,  avg # of iterations =  1.0

     total cpu time spent up to now is       83.0 secs

     total energy              =   -1954.94158504 Ry
     Harris-Foulkes estimate   =   -1954.94175590 Ry
     estimated scf accuracy    <       0.04721544 Ry

     iteration # 67     ecut=    30.00 Ry     beta= 0.70
     Davidson diagonalization with overlap
     ethr =  4.24E-07,  avg # of iterations =  2.0

     total cpu time spent up to now is       83.8 secs

     total energy              =   -1954.94154244 Ry
     Harris-Foulkes estimate   =   -1954.94158950 Ry
     estimated scf accuracy    <       0.04380383 Ry

     iteration # 68     ecut=    30.00 Ry     beta= 0.70
     Davidson diagonalization with overlap
     ethr =  4.24E-07,  avg # of iterations =  2.0

     total cpu time spent up to now is       84.6 secs

     total energy              =   -1954.94160075 Ry
     Harris-Foulkes estimate   =   -1954.94154552 Ry
     estimated scf accuracy    <       0.04207170 Ry

     iteration # 69     ecut=    30.00 Ry     beta= 0.70
     Davidson diagonalization with overlap
     ethr =  4.24E-07,  avg # of iterations =  1.0

     total cpu time spent up to now is       85.4 secs

     total energy              =   -1954.94163525 Ry
     Harris-Foulkes estimate   =   -1954.94160182 Ry
     estimated scf accuracy    <       0.04207763 Ry

     iteration # 70     ecut=    30.00 Ry     beta= 0.70
     Davidson diagonalization with overlap
     ethr =  4.24E-07,  avg # of iterations =  1.0

     total cpu time spent up to now is       86.1 secs

     total energy              =   -1954.94161406 Ry
     Harris-Foulkes estimate   =   -1954.94163579 Ry
     estimated scf accuracy    <       0.04216680 Ry

     iteration # 71     ecut=    30.00 Ry     beta= 0.70
     Davidson diagonalization with overlap
     ethr =  4.24E-07,  avg # of iterations =  1.0

     total cpu time spent up to now is       86.9 secs

     total energy              =   -1954.93921807 Ry
     Harris-Foulkes estimate   =   -1954.94161433 Ry
     estimated scf accuracy    <       0.04196381 Ry

     iteration # 72     ecut=    30.00 Ry     beta= 0.70
     Davidson diagonalization with overlap
     ethr =  4.24E-07,  avg # of iterations =  8.5

     total cpu time spent up to now is       89.3 secs

     total energy              =   -1954.94350625 Ry
     Harris-Foulkes estimate   =   -1954.94526402 Ry
     estimated scf accuracy    <       0.21609532 Ry

     iteration # 73     ecut=    30.00 Ry     beta= 0.70
     Davidson diagonalization with overlap
     ethr =  4.24E-07,  avg # of iterations =  8.0

     total cpu time spent up to now is       90.8 secs

     total energy              =   -1954.94372457 Ry
     Harris-Foulkes estimate   =   -1954.94367323 Ry
     estimated scf accuracy    <       0.14667553 Ry

     iteration # 74     ecut=    30.00 Ry     beta= 0.70
     Davidson diagonalization with overlap
     ethr =  4.24E-07,  avg # of iterations =  1.0

     total cpu time spent up to now is       91.6 secs

     total energy              =   -1954.94325936 Ry
     Harris-Foulkes estimate   =   -1954.94372705 Ry
     estimated scf accuracy    <       0.14677685 Ry

     iteration # 75     ecut=    30.00 Ry     beta= 0.70
     Davidson diagonalization with overlap
     ethr =  4.24E-07,  avg # of iterations =  1.0

     total cpu time spent up to now is       92.3 secs

     total energy              =   -1954.94250754 Ry
     Harris-Foulkes estimate   =   -1954.94326342 Ry
     estimated scf accuracy    <       0.14273368 Ry

     iteration # 76     ecut=    30.00 Ry     beta= 0.70
     Davidson diagonalization with overlap
     ethr =  4.24E-07,  avg # of iterations =  9.0

     total cpu time spent up to now is       93.8 secs

     total energy              =   -1954.94258537 Ry
     Harris-Foulkes estimate   =   -1954.94261465 Ry
     estimated scf accuracy    <       0.09468602 Ry

     iteration # 77     ecut=    30.00 Ry     beta= 0.70
     Davidson diagonalization with overlap
     ethr =  4.24E-07,  avg # of iterations =  1.0

     total cpu time spent up to now is       94.6 secs

     total energy              =   -1954.94169930 Ry
     Harris-Foulkes estimate   =   -1954.94258696 Ry
     estimated scf accuracy    <       0.09439781 Ry

     iteration # 78     ecut=    30.00 Ry     beta= 0.70
     Davidson diagonalization with overlap
     ethr =  4.24E-07,  avg # of iterations = 10.0

     total cpu time spent up to now is       96.3 secs

     total energy              =   -1954.94167278 Ry
     Harris-Foulkes estimate   =   -1954.94182351 Ry
     estimated scf accuracy    <       0.04637897 Ry

     iteration # 79     ecut=    30.00 Ry     beta= 0.70
     Davidson diagonalization with overlap
     ethr =  4.24E-07,  avg # of iterations =  1.0

     total cpu time spent up to now is       97.0 secs

     total energy              =   -1954.94141291 Ry
     Harris-Foulkes estimate   =   -1954.94167874 Ry
     estimated scf accuracy    <       0.04493386 Ry

     iteration # 80     ecut=    30.00 Ry     beta= 0.70
     Davidson diagonalization with overlap
     ethr =  4.24E-07,  avg # of iterations = 11.8

     total cpu time spent up to now is       98.8 secs

     total energy              =   -1954.94135444 Ry
     Harris-Foulkes estimate   =   -1954.94160652 Ry
     estimated scf accuracy    <       0.00637468 Ry

     iteration # 81     ecut=    30.00 Ry     beta= 0.70
     Davidson diagonalization with overlap
     ethr =  4.24E-07,  avg # of iterations = 12.2

     total cpu time spent up to now is      100.7 secs

     total energy              =   -1954.94193702 Ry
     Harris-Foulkes estimate   =   -1954.94213134 Ry
     estimated scf accuracy    <       0.06727340 Ry

     iteration # 82     ecut=    30.00 Ry     beta= 0.70
     Davidson diagonalization with overlap
     ethr =  4.24E-07,  avg # of iterations =  1.0

     total cpu time spent up to now is      101.4 secs

     total energy              =   -1954.94171620 Ry
     Harris-Foulkes estimate   =   -1954.94194236 Ry
     estimated scf accuracy    <       0.06618308 Ry

     iteration # 83     ecut=    30.00 Ry     beta= 0.70
     Davidson diagonalization with overlap
     ethr =  4.24E-07,  avg # of iterations = 11.0

     total cpu time spent up to now is      103.1 secs

     total energy              =   -1954.94168823 Ry
     Harris-Foulkes estimate   =   -1954.94175822 Ry
     estimated scf accuracy    <       0.04238816 Ry

     iteration # 84     ecut=    30.00 Ry     beta= 0.70
     Davidson diagonalization with overlap
     ethr =  4.24E-07,  avg # of iterations =  1.0

     total cpu time spent up to now is      103.9 secs

     total energy              =   -1954.94176499 Ry
     Harris-Foulkes estimate   =   -1954.94169009 Ry
     estimated scf accuracy    <       0.04174284 Ry

     iteration # 85     ecut=    30.00 Ry     beta= 0.70
     Davidson diagonalization with overlap
     ethr =  4.24E-07,  avg # of iterations =  1.0

     total cpu time spent up to now is      104.6 secs

     total energy              =   -1954.94174576 Ry
     Harris-Foulkes estimate   =   -1954.94176621 Ry
     estimated scf accuracy    <       0.04186892 Ry

     iteration # 86     ecut=    30.00 Ry     beta= 0.70
     Davidson diagonalization with overlap
     ethr =  4.24E-07,  avg # of iterations =  1.0

     total cpu time spent up to now is      105.4 secs

     total energy              =   -1954.94158057 Ry
     Harris-Foulkes estimate   =   -1954.94174645 Ry
     estimated scf accuracy    <       0.04164969 Ry

     iteration # 87     ecut=    30.00 Ry     beta= 0.70
     Davidson diagonalization with overlap
     ethr =  4.24E-07,  avg # of iterations =  1.0

     total cpu time spent up to now is      106.1 secs

     total energy              =   -1954.94146603 Ry
     Harris-Foulkes estimate   =   -1954.94158300 Ry
     estimated scf accuracy    <       0.03982748 Ry

     iteration # 88     ecut=    30.00 Ry     beta= 0.70
     Davidson diagonalization with overlap
     ethr =  4.24E-07,  avg # of iterations =  5.8

     total cpu time spent up to now is      107.3 secs

     total energy              =   -1954.94136120 Ry
     Harris-Foulkes estimate   =   -1954.94148191 Ry
     estimated scf accuracy    <       0.03240477 Ry

     iteration # 89     ecut=    30.00 Ry     beta= 0.70
     Davidson diagonalization with overlap
     ethr =  4.24E-07,  avg # of iterations =  7.5

     total cpu time spent up to now is      108.6 secs

     total energy              =   -1954.94151955 Ry
     Harris-Foulkes estimate   =   -1954.94152861 Ry
     estimated scf accuracy    <       0.00023198 Ry

     iteration # 90     ecut=    30.00 Ry     beta= 0.70
     Davidson diagonalization with overlap
     ethr =  9.91E-08,  avg # of iterations =  9.0

     total cpu time spent up to now is      110.9 secs

     total energy              =   -1954.94188519 Ry
     Harris-Foulkes estimate   =   -1954.94244641 Ry
     estimated scf accuracy    <       0.08490835 Ry

     iteration # 91     ecut=    30.00 Ry     beta= 0.70
     Davidson diagonalization with overlap
     ethr =  9.91E-08,  avg # of iterations =  7.8

     total cpu time spent up to now is      112.7 secs

     total energy              =   -1954.94134775 Ry
     Harris-Foulkes estimate   =   -1954.94195488 Ry
     estimated scf accuracy    <       0.05732187 Ry

     iteration # 92     ecut=    30.00 Ry     beta= 0.70
     Davidson diagonalization with overlap
     ethr =  9.91E-08,  avg # of iterations =  9.5

     total cpu time spent up to now is      114.5 secs

     total energy              =   -1954.94153077 Ry
     Harris-Foulkes estimate   =   -1954.94161990 Ry
     estimated scf accuracy    <       0.00822917 Ry

     iteration # 93     ecut=    30.00 Ry     beta= 0.70
     Davidson diagonalization with overlap
     ethr =  9.91E-08,  avg # of iterations = 14.0

     total cpu time spent up to now is      116.6 secs

     total energy              =   -1954.94166891 Ry
     Harris-Foulkes estimate   =   -1954.94162614 Ry
     estimated scf accuracy    <       0.01464448 Ry

     iteration # 94     ecut=    30.00 Ry     beta= 0.70
     Davidson diagonalization with overlap
     ethr =  9.91E-08,  avg # of iterations =  2.8

     total cpu time spent up to now is      117.9 secs

     total energy              =   -1954.94168333 Ry
     Harris-Foulkes estimate   =   -1954.94167102 Ry
     estimated scf accuracy    <       0.01542971 Ry

     iteration # 95     ecut=    30.00 Ry     beta= 0.70
     Davidson diagonalization with overlap
     ethr =  9.91E-08,  avg # of iterations =  1.0

     total cpu time spent up to now is      118.6 secs

     total energy              =   -1954.94164287 Ry
     Harris-Foulkes estimate   =   -1954.94168396 Ry
     estimated scf accuracy    <       0.01563125 Ry

     iteration # 96     ecut=    30.00 Ry     beta= 0.70
     Davidson diagonalization with overlap
     ethr =  9.91E-08,  avg # of iterations =  1.0

     total cpu time spent up to now is      119.4 secs

     total energy              =   -1954.94163378 Ry
     Harris-Foulkes estimate   =   -1954.94164318 Ry
     estimated scf accuracy    <       0.01552665 Ry

     iteration # 97     ecut=    30.00 Ry     beta= 0.70
     Davidson diagonalization with overlap
     ethr =  9.91E-08,  avg # of iterations =  1.0

     total cpu time spent up to now is      120.1 secs

     total energy              =   -1954.94186112 Ry
     Harris-Foulkes estimate   =   -1954.94163390 Ry
     estimated scf accuracy    <       0.01548579 Ry

     iteration # 98     ecut=    30.00 Ry     beta= 0.70
     Davidson diagonalization with overlap
     ethr =  9.91E-08,  avg # of iterations = 10.2

     total cpu time spent up to now is      121.9 secs

     total energy              =   -1954.94209171 Ry
     Harris-Foulkes estimate   =   -1954.94203134 Ry
     estimated scf accuracy    <       0.06291116 Ry

     iteration # 99     ecut=    30.00 Ry     beta= 0.70
     Davidson diagonalization with overlap
     ethr =  9.91E-08,  avg # of iterations =  1.0

     total cpu time spent up to now is      122.7 secs

     total energy              =   -1954.94194445 Ry
     Harris-Foulkes estimate   =   -1954.94209343 Ry
     estimated scf accuracy    <       0.06345055 Ry

     iteration #100     ecut=    30.00 Ry     beta= 0.70
     Davidson diagonalization with overlap
     ethr =  9.91E-08,  avg # of iterations =  1.0

     total cpu time spent up to now is      123.4 secs

     total energy              =   -1954.94277190 Ry
     Harris-Foulkes estimate   =   -1954.94194561 Ry
     estimated scf accuracy    <       0.06239169 Ry

     End of self-consistent calculation

     convergence NOT achieved after 100 iterations: stopping

     Writing output data file LaNiO3.save
 
     init_run     :      0.83s CPU      0.87s WALL (       1 calls)
     electrons    :    114.23s CPU    120.20s WALL (       1 calls)

     Called by init_run:
     wfcinit      :      0.49s CPU      0.51s WALL (       1 calls)
     potinit      :      0.05s CPU      0.05s WALL (       1 calls)

     Called by electrons:
     c_bands      :     97.66s CPU    101.62s WALL (     100 calls)
     sum_band     :     12.38s CPU     13.55s WALL (     100 calls)
     v_of_rho     :      0.06s CPU      0.06s WALL (     101 calls)
     newd         :      3.98s CPU      4.74s WALL (     101 calls)
     mix_rho      :      0.16s CPU      0.17s WALL (     100 calls)

     Called by c_bands:
     init_us_2    :      0.82s CPU      0.85s WALL (     804 calls)
     cegterg      :     92.52s CPU     96.43s WALL (     400 calls)

     Called by sum_band:
     sum_band:bec :      0.24s CPU      0.25s WALL (     400 calls)
     addusdens    :      3.97s CPU      4.90s WALL (     100 calls)

     Called by *egterg:
     h_psi        :     32.10s CPU     33.11s WALL (    2192 calls)
     s_psi        :      5.36s CPU      5.37s WALL (    2192 calls)
     g_psi        :      0.15s CPU      0.15s WALL (    1788 calls)
     cdiaghg      :     43.13s CPU     45.36s WALL (    2188 calls)

     Called by h_psi:
     h_psi:pot    :     31.86s CPU     32.86s WALL (    2192 calls)
     h_psi:calbec :      5.90s CPU      5.96s WALL (    2192 calls)
     vloc_psi     :     20.29s CPU     21.21s WALL (    2192 calls)
     add_vuspsi   :      5.65s CPU      5.68s WALL (    2192 calls)

     General routines
     calbec       :      8.32s CPU      8.40s WALL (    2592 calls)
     fft          :      0.35s CPU      0.35s WALL (     606 calls)
     fftw         :     23.29s CPU     24.36s WALL (  255392 calls)
     davcio       :      0.00s CPU      0.00s WALL (      22 calls)
 
     Parallel routines
     fft_scatt_xy :      1.84s CPU      1.92s WALL (  255998 calls)
     fft_scatt_yz :      9.45s CPU      9.89s WALL (  255998 calls)
 
     PWSCF        :  1m57.39s CPU     2m 3.55s WALL

 
   This run was terminated on:  15:53:13  27Jun2019            

=------------------------------------------------------------------------------=
   JOB DONE.
=------------------------------------------------------------------------------=
