
     Program PWSCF v.6.2 (svn rev. 14038) starts on 27Jun2019 at 15:59:50 

     This program is part of the open-source Quantum ESPRESSO suite
     for quantum simulation of materials; please cite
         "P. Giannozzi et al., J. Phys.:Condens. Matter 21 395502 (2009);
         "P. Giannozzi et al., J. Phys.:Condens. Matter 29 465901 (2017);
          URL http://www.quantum-espresso.org", 
     in publications or presentations arising from this work. More details at
     http://www.quantum-espresso.org/quote

     Parallel version (MPI & OpenMP), running on      20 processor cores
     Number of MPI processes:                20
     Threads/MPI process:                     1

     MPI processes distributed on     1 nodes
     R & G space division:  proc/nbgrp/npool/nimage =      20
     Reading input from Ni.in

     Current dimensions of program PWSCF are:
     Max number of different atomic species (ntypx) = 10
     Max number of k-points (npk) =  40000
     Max angular momentum in pseudopotentials (lmaxx) =  3
               file Ni.pz-n-rrkjus_psl.0.1.UPF: wavefunction(s)  3D renormalized

     Subspace diagonalization in iterative solution of the eigenvalue problem:
     one sub-group per band group will be used
     scalapack distributed-memory algorithm (size of sub-group:  3*  3 procs)

 
     Parallelization info
     --------------------
     sticks:   dense  smooth     PW     G-vecs:    dense   smooth      PW
     Min         169     169     44                 7485     7485    1008
     Max         170     170     45                 7492     7492    1013
     Sum        3397    3397    885               149781   149781   20197
 


     bravais-lattice index     =            1
     lattice parameter (alat)  =      18.8973  a.u.
     unit-cell volume          =    6748.3346 (a.u.)^3
     number of atoms/cell      =            1
     number of atomic types    =            1
     number of electrons       =        10.00
     number of Kohn-Sham states=            5
     kinetic-energy cutoff     =      30.0000  Ry
     charge density cutoff     =     120.0000  Ry
     convergence threshold     =      1.0E-06
     mixing beta               =       0.7000
     number of iterations used =            8  plain     mixing
     Exchange-correlation      = LDA ( 1  1  0  0 0 0)

     celldm(1)=  18.897261  celldm(2)=   0.000000  celldm(3)=   0.000000
     celldm(4)=   0.000000  celldm(5)=   0.000000  celldm(6)=   0.000000

     crystal axes: (cart. coord. in units of alat)
               a(1) = (   1.000000   0.000000   0.000000 )  
               a(2) = (   0.000000   1.000000   0.000000 )  
               a(3) = (   0.000000   0.000000   1.000000 )  

     reciprocal axes: (cart. coord. in units 2 pi/alat)
               b(1) = (  1.000000  0.000000  0.000000 )  
               b(2) = (  0.000000  1.000000  0.000000 )  
               b(3) = (  0.000000  0.000000  1.000000 )  


     PseudoPot. # 1 for Ni read from file:
     ./Ni.pz-n-rrkjus_psl.0.1.UPF
     MD5 check sum: 4def80e42349afdd14834ce81d852c61
     Pseudo is Ultrasoft + core correction, Zval = 10.0
     Generated using "atomic" code by A. Dal Corso v.5.0.2 svn rev. 9415
     Using radial grid of 1195 points,  6 beta functions with: 
                l(1) =   0
                l(2) =   0
                l(3) =   1
                l(4) =   1
                l(5) =   2
                l(6) =   2
     Q(r) pseudized with 0 coefficients 


     atomic species   valence    mass     pseudopotential
        Ni            10.00    58.69340     Ni( 1.00)

     48 Sym. Ops., with inversion, found



   Cartesian axes

     site n.     atom                  positions (alat units)
         1           Ni  tau(   1) = (   0.5000000   0.5000000   0.5000000  )

     number of k points=     1
                       cart. coord. in units 2pi/alat
        k(    1) = (   0.2500000   0.2500000   0.2500000), wk =   2.0000000

     Dense  grid:   149781 G-vectors     FFT dimensions: (  72,  72,  72)

     Estimated max dynamical RAM per process >      28.89 MB

     Estimated total dynamical RAM >     577.74 MB

     Check: negative/imaginary core charge=   -0.000012    0.000000

     Initial potential from superposition of free atoms
     Check: negative starting charge=   -0.008575

     starting charge    9.99980, renormalised to   10.00000

     negative rho (up, down):  8.575E-03 0.000E+00
     Starting wfc are    9 randomized atomic wfcs

     total cpu time spent up to now is        0.8 secs

     Self-consistent Calculation

     iteration #  1     ecut=    30.00 Ry     beta= 0.70
     Davidson diagonalization with overlap
     ethr =  1.00E-02,  avg # of iterations =  1.0

     negative rho (up, down):  1.256E-02 0.000E+00

     total cpu time spent up to now is        0.9 secs

     total energy              =     -98.67261744 Ry
     Harris-Foulkes estimate   =    -100.02977531 Ry
     estimated scf accuracy    <       1.62535536 Ry

     iteration #  2     ecut=    30.00 Ry     beta= 0.70
     Davidson diagonalization with overlap
     ethr =  1.00E-02,  avg # of iterations = 15.0

     total cpu time spent up to now is        1.1 secs

     total energy              =     -94.86174479 Ry
     Harris-Foulkes estimate   =    -105.52787829 Ry
     estimated scf accuracy    <      71.25340914 Ry

     iteration #  3     ecut=    30.00 Ry     beta= 0.70
     Davidson diagonalization with overlap
     ethr =  1.00E-02,  avg # of iterations =  8.0

     total cpu time spent up to now is        1.2 secs

     total energy              =     -99.57373368 Ry
     Harris-Foulkes estimate   =     -99.77646899 Ry
     estimated scf accuracy    <       0.81495613 Ry

     iteration #  4     ecut=    30.00 Ry     beta= 0.70
     Davidson diagonalization with overlap
     ethr =  8.15E-03,  avg # of iterations =  1.0

     negative rho (up, down):  6.516E-07 0.000E+00

     total cpu time spent up to now is        1.2 secs

     total energy              =     -99.55863980 Ry
     Harris-Foulkes estimate   =     -99.60713556 Ry
     estimated scf accuracy    <       0.26714118 Ry

     iteration #  5     ecut=    30.00 Ry     beta= 0.70
     Davidson diagonalization with overlap
     ethr =  2.67E-03,  avg # of iterations =  2.0

     negative rho (up, down):  2.328E-05 0.000E+00

     total cpu time spent up to now is        1.3 secs

     total energy              =     -99.56877712 Ry
     Harris-Foulkes estimate   =     -99.57583690 Ry
     estimated scf accuracy    <       0.08629149 Ry

     iteration #  6     ecut=    30.00 Ry     beta= 0.70
     Davidson diagonalization with overlap
     ethr =  8.63E-04,  avg # of iterations =  1.0

     negative rho (up, down):  1.368E-03 0.000E+00

     total cpu time spent up to now is        1.4 secs

     total energy              =     -99.56094416 Ry
     Harris-Foulkes estimate   =     -99.57059261 Ry
     estimated scf accuracy    <       0.06498663 Ry

     iteration #  7     ecut=    30.00 Ry     beta= 0.70
     Davidson diagonalization with overlap
     ethr =  6.50E-04,  avg # of iterations =  1.0

     negative rho (up, down):  4.430E-02 0.000E+00

     total cpu time spent up to now is        1.5 secs

     total energy              =     -99.55308379 Ry
     Harris-Foulkes estimate   =     -99.56267527 Ry
     estimated scf accuracy    <       0.03223679 Ry

     iteration #  8     ecut=    30.00 Ry     beta= 0.70
     Davidson diagonalization with overlap
     ethr =  3.22E-04,  avg # of iterations =  2.0

     negative rho (up, down):  5.166E-02 0.000E+00

     total cpu time spent up to now is        1.6 secs

     total energy              =     -99.55565461 Ry
     Harris-Foulkes estimate   =     -99.55633760 Ry
     estimated scf accuracy    <       0.00549390 Ry

     iteration #  9     ecut=    30.00 Ry     beta= 0.70
     Davidson diagonalization with overlap
     ethr =  5.49E-05,  avg # of iterations =  1.0

     negative rho (up, down):  5.131E-02 0.000E+00

     total cpu time spent up to now is        1.6 secs

     total energy              =     -99.55582315 Ry
     Harris-Foulkes estimate   =     -99.55584754 Ry
     estimated scf accuracy    <       0.00376733 Ry

     iteration # 10     ecut=    30.00 Ry     beta= 0.70
     Davidson diagonalization with overlap
     ethr =  3.77E-05,  avg # of iterations =  1.0

     negative rho (up, down):  5.576E-02 0.000E+00

     total cpu time spent up to now is        1.7 secs

     total energy              =     -99.55578223 Ry
     Harris-Foulkes estimate   =     -99.55589753 Ry
     estimated scf accuracy    <       0.00355154 Ry

     iteration # 11     ecut=    30.00 Ry     beta= 0.70
     Davidson diagonalization with overlap
     ethr =  3.55E-05,  avg # of iterations =  8.0

     negative rho (up, down):  1.038E-02 0.000E+00

     total cpu time spent up to now is        1.8 secs

     total energy              =     -99.93839818 Ry
     Harris-Foulkes estimate   =     -99.99923888 Ry
     estimated scf accuracy    <       1.55004970 Ry

     iteration # 12     ecut=    30.00 Ry     beta= 0.70
     Davidson diagonalization with overlap
     ethr =  3.55E-05,  avg # of iterations =  2.0

     negative rho (up, down):  1.049E-02 0.000E+00

     total cpu time spent up to now is        1.9 secs

     total energy              =     -99.93227752 Ry
     Harris-Foulkes estimate   =     -99.93988550 Ry
     estimated scf accuracy    <       1.33951262 Ry

     iteration # 13     ecut=    30.00 Ry     beta= 0.70
     Davidson diagonalization with overlap
     ethr =  3.55E-05,  avg # of iterations =  1.0

     negative rho (up, down):  1.051E-02 0.000E+00

     total cpu time spent up to now is        2.0 secs

     total energy              =     -99.92761426 Ry
     Harris-Foulkes estimate   =     -99.93229652 Ry
     estimated scf accuracy    <       1.31818397 Ry

     iteration # 14     ecut=    30.00 Ry     beta= 0.70
     Davidson diagonalization with overlap
     ethr =  3.55E-05,  avg # of iterations =  1.0

     negative rho (up, down):  1.045E-02 0.000E+00

     total cpu time spent up to now is        2.1 secs

     total energy              =     -99.94946529 Ry
     Harris-Foulkes estimate   =     -99.92762512 Ry
     estimated scf accuracy    <       1.30382769 Ry

     iteration # 15     ecut=    30.00 Ry     beta= 0.70
     Davidson diagonalization with overlap
     ethr =  3.55E-05,  avg # of iterations =  1.0

     negative rho (up, down):  1.044E-02 0.000E+00

     total cpu time spent up to now is        2.2 secs

     total energy              =     -99.94285753 Ry
     Harris-Foulkes estimate   =     -99.94960709 Ry
     estimated scf accuracy    <       1.36513276 Ry

     iteration # 16     ecut=    30.00 Ry     beta= 0.70
     Davidson diagonalization with overlap
     ethr =  3.55E-05,  avg # of iterations =  1.0

     negative rho (up, down):  1.047E-02 0.000E+00

     total cpu time spent up to now is        2.3 secs

     total energy              =     -99.94543001 Ry
     Harris-Foulkes estimate   =     -99.94287076 Ry
     estimated scf accuracy    <       1.34913092 Ry

     iteration # 17     ecut=    30.00 Ry     beta= 0.70
     Davidson diagonalization with overlap
     ethr =  3.55E-05,  avg # of iterations =  1.0

     negative rho (up, down):  1.048E-02 0.000E+00

     total cpu time spent up to now is        2.3 secs

     total energy              =     -99.94834603 Ry
     Harris-Foulkes estimate   =     -99.94543295 Ry
     estimated scf accuracy    <       1.35587123 Ry

     iteration # 18     ecut=    30.00 Ry     beta= 0.70
     Davidson diagonalization with overlap
     ethr =  3.55E-05,  avg # of iterations =  1.0

     negative rho (up, down):  9.824E-03 0.000E+00

     total cpu time spent up to now is        2.4 secs

     total energy              =     -99.78736026 Ry
     Harris-Foulkes estimate   =     -99.94835017 Ry
     estimated scf accuracy    <       1.36465505 Ry

     iteration # 19     ecut=    30.00 Ry     beta= 0.70
     Davidson diagonalization with overlap
     ethr =  3.55E-05,  avg # of iterations =  3.0

     negative rho (up, down):  1.372E-02 0.000E+00

     total cpu time spent up to now is        2.5 secs

     total energy              =     -99.34858807 Ry
     Harris-Foulkes estimate   =     -99.79778190 Ry
     estimated scf accuracy    <       0.85769320 Ry

     iteration # 20     ecut=    30.00 Ry     beta= 0.70
     Davidson diagonalization with overlap
     c_bands:  5 eigenvalues not converged
     ethr =  3.55E-05,  avg # of iterations = 20.0

     negative rho (up, down):  1.148E-02 0.000E+00

     total cpu time spent up to now is        2.7 secs

     total energy              =    -100.60274450 Ry
     Harris-Foulkes estimate   =    -100.64699929 Ry
     estimated scf accuracy    <      37.15343008 Ry

     iteration # 21     ecut=    30.00 Ry     beta= 0.70
     Davidson diagonalization with overlap
     ethr =  3.55E-05,  avg # of iterations = 13.0

     negative rho (up, down):  6.690E-03 0.000E+00

     total cpu time spent up to now is        2.9 secs

     total energy              =    -100.45496332 Ry
     Harris-Foulkes estimate   =    -100.65674645 Ry
     estimated scf accuracy    <      42.71678644 Ry

     iteration # 22     ecut=    30.00 Ry     beta= 0.70
     Davidson diagonalization with overlap
     ethr =  3.55E-05,  avg # of iterations =  8.0

     negative rho (up, down):  8.833E-03 0.000E+00

     total cpu time spent up to now is        3.0 secs

     total energy              =    -100.43205182 Ry
     Harris-Foulkes estimate   =    -100.46072096 Ry
     estimated scf accuracy    <      37.98490106 Ry

     iteration # 23     ecut=    30.00 Ry     beta= 0.70
     Davidson diagonalization with overlap
     ethr =  3.55E-05,  avg # of iterations =  3.0

     negative rho (up, down):  1.574E-02 0.000E+00

     total cpu time spent up to now is        3.1 secs

     total energy              =    -100.02636323 Ry
     Harris-Foulkes estimate   =    -100.43264647 Ry
     estimated scf accuracy    <      37.68996137 Ry

     iteration # 24     ecut=    30.00 Ry     beta= 0.70
     Davidson diagonalization with overlap
     c_bands:  1 eigenvalues not converged
     ethr =  3.55E-05,  avg # of iterations = 20.0

     negative rho (up, down):  1.221E-02 0.000E+00

     total cpu time spent up to now is        3.2 secs

     total energy              =    -100.08443157 Ry
     Harris-Foulkes estimate   =    -100.08290572 Ry
     estimated scf accuracy    <      12.20341360 Ry

     iteration # 25     ecut=    30.00 Ry     beta= 0.70
     Davidson diagonalization with overlap
     ethr =  3.55E-05,  avg # of iterations =  3.0

     negative rho (up, down):  1.354E-02 0.000E+00

     total cpu time spent up to now is        3.3 secs

     total energy              =    -100.03538450 Ry
     Harris-Foulkes estimate   =    -100.08487553 Ry
     estimated scf accuracy    <      12.14762316 Ry

     iteration # 26     ecut=    30.00 Ry     beta= 0.70
     Davidson diagonalization with overlap
     ethr =  3.55E-05,  avg # of iterations =  7.0

     negative rho (up, down):  2.000E-02 0.000E+00

     total cpu time spent up to now is        3.4 secs

     total energy              =    -100.26784333 Ry
     Harris-Foulkes estimate   =    -100.03930683 Ry
     estimated scf accuracy    <       9.97628008 Ry

     iteration # 27     ecut=    30.00 Ry     beta= 0.70
     Davidson diagonalization with overlap
     c_bands:  1 eigenvalues not converged
     ethr =  3.55E-05,  avg # of iterations = 20.0

     negative rho (up, down):  5.774E-02 0.000E+00

     total cpu time spent up to now is        3.5 secs

     total energy              =     -97.93427750 Ry
     Harris-Foulkes estimate   =    -100.38565881 Ry
     estimated scf accuracy    <      35.28593374 Ry

     iteration # 28     ecut=    30.00 Ry     beta= 0.70
     Davidson diagonalization with overlap
     ethr =  3.55E-05,  avg # of iterations = 12.0

     negative rho (up, down):  1.098E-01 0.000E+00

     total cpu time spent up to now is        3.7 secs

     total energy              =     -99.61172803 Ry
     Harris-Foulkes estimate   =     -99.66643008 Ry
     estimated scf accuracy    <       0.40461195 Ry

     iteration # 29     ecut=    30.00 Ry     beta= 0.70
     Davidson diagonalization with overlap
     ethr =  3.55E-05,  avg # of iterations =  3.0

     negative rho (up, down):  2.657E-01 0.000E+00

     total cpu time spent up to now is        3.8 secs

     total energy              =     -99.63819124 Ry
     Harris-Foulkes estimate   =     -99.62032595 Ry
     estimated scf accuracy    <       0.19546786 Ry

     iteration # 30     ecut=    30.00 Ry     beta= 0.70
     Davidson diagonalization with overlap
     ethr =  3.55E-05,  avg # of iterations =  4.0

     negative rho (up, down):  7.366E-02 0.000E+00

     total cpu time spent up to now is        3.9 secs

     total energy              =     -99.55644868 Ry
     Harris-Foulkes estimate   =     -99.63982385 Ry
     estimated scf accuracy    <       0.21527266 Ry

     iteration # 31     ecut=    30.00 Ry     beta= 0.70
     Davidson diagonalization with overlap
     ethr =  3.55E-05,  avg # of iterations =  5.0

     negative rho (up, down):  2.714E-02 0.000E+00

     total cpu time spent up to now is        4.0 secs

     total energy              =     -99.54518350 Ry
     Harris-Foulkes estimate   =     -99.57039785 Ry
     estimated scf accuracy    <       0.04987627 Ry

     iteration # 32     ecut=    30.00 Ry     beta= 0.70
     Davidson diagonalization with overlap
     ethr =  3.55E-05,  avg # of iterations =  4.0

     negative rho (up, down):  6.550E-02 0.000E+00

     total cpu time spent up to now is        4.1 secs

     total energy              =     -99.55599093 Ry
     Harris-Foulkes estimate   =     -99.55353579 Ry
     estimated scf accuracy    <       0.00511264 Ry

     iteration # 33     ecut=    30.00 Ry     beta= 0.70
     Davidson diagonalization with overlap
     ethr =  3.55E-05,  avg # of iterations =  3.0

     negative rho (up, down):  5.785E-02 0.000E+00

     total cpu time spent up to now is        4.2 secs

     total energy              =     -99.55747897 Ry
     Harris-Foulkes estimate   =     -99.55858379 Ry
     estimated scf accuracy    <       0.01964982 Ry

     iteration # 34     ecut=    30.00 Ry     beta= 0.70
     Davidson diagonalization with overlap
     ethr =  3.55E-05,  avg # of iterations =  1.0

     negative rho (up, down):  5.409E-02 0.000E+00

     total cpu time spent up to now is        4.2 secs

     total energy              =     -99.55226956 Ry
     Harris-Foulkes estimate   =     -99.55751052 Ry
     estimated scf accuracy    <       0.01626902 Ry

     iteration # 35     ecut=    30.00 Ry     beta= 0.70
     Davidson diagonalization with overlap
     ethr =  3.55E-05,  avg # of iterations =  2.0

     negative rho (up, down):  1.209E-02 0.000E+00

     total cpu time spent up to now is        4.3 secs

     total energy              =     -99.56832628 Ry
     Harris-Foulkes estimate   =     -99.55319137 Ry
     estimated scf accuracy    <       0.00625889 Ry

     iteration # 36     ecut=    30.00 Ry     beta= 0.70
     Davidson diagonalization with overlap
     ethr =  3.55E-05,  avg # of iterations =  3.0

     negative rho (up, down):  2.963E-02 0.000E+00

     total cpu time spent up to now is        4.4 secs

     total energy              =     -99.53991020 Ry
     Harris-Foulkes estimate   =     -99.57596887 Ry
     estimated scf accuracy    <       0.05780598 Ry

     iteration # 37     ecut=    30.00 Ry     beta= 0.70
     Davidson diagonalization with overlap
     ethr =  3.55E-05,  avg # of iterations =  4.0

     negative rho (up, down):  3.233E-02 0.000E+00

     total cpu time spent up to now is        4.5 secs

     total energy              =     -99.55312546 Ry
     Harris-Foulkes estimate   =     -99.55324885 Ry
     estimated scf accuracy    <       0.00087851 Ry

     iteration # 38     ecut=    30.00 Ry     beta= 0.70
     Davidson diagonalization with overlap
     ethr =  8.79E-06,  avg # of iterations =  8.0

     negative rho (up, down):  3.988E-02 0.000E+00

     total cpu time spent up to now is        4.6 secs

     total energy              =    -100.24280360 Ry
     Harris-Foulkes estimate   =    -100.02997900 Ry
     estimated scf accuracy    <       1.62588639 Ry

     iteration # 39     ecut=    30.00 Ry     beta= 0.70
     Davidson diagonalization with overlap
     ethr =  8.79E-06,  avg # of iterations =  3.0

     negative rho (up, down):  2.664E-02 0.000E+00

     total cpu time spent up to now is        4.7 secs

     total energy              =     -99.87157513 Ry
     Harris-Foulkes estimate   =    -100.25395613 Ry
     estimated scf accuracy    <       2.27778901 Ry

     iteration # 40     ecut=    30.00 Ry     beta= 0.70
     Davidson diagonalization with overlap
     ethr =  8.79E-06,  avg # of iterations =  4.0

     negative rho (up, down):  4.108E-02 0.000E+00

     total cpu time spent up to now is        4.8 secs

     total energy              =    -100.37611871 Ry
     Harris-Foulkes estimate   =     -99.90167459 Ry
     estimated scf accuracy    <       1.22031770 Ry

     iteration # 41     ecut=    30.00 Ry     beta= 0.70
     Davidson diagonalization with overlap
     ethr =  8.79E-06,  avg # of iterations =  4.0

     negative rho (up, down):  1.847E-02 0.000E+00

     total cpu time spent up to now is        4.9 secs

     total energy              =     -98.84822966 Ry
     Harris-Foulkes estimate   =    -100.44104042 Ry
     estimated scf accuracy    <       2.76216889 Ry

     iteration # 42     ecut=    30.00 Ry     beta= 0.70
     Davidson diagonalization with overlap
     c_bands:  5 eigenvalues not converged
     ethr =  8.79E-06,  avg # of iterations = 20.0

     negative rho (up, down):  8.860E-03 0.000E+00

     total cpu time spent up to now is        5.1 secs

     total energy              =     -99.60611158 Ry
     Harris-Foulkes estimate   =    -101.90192656 Ry
     estimated scf accuracy    <      59.95576817 Ry

     iteration # 43     ecut=    30.00 Ry     beta= 0.70
     Davidson diagonalization with overlap
     c_bands:  3 eigenvalues not converged
     ethr =  8.79E-06,  avg # of iterations = 20.0

     negative rho (up, down):  1.675E-01 0.000E+00

     total cpu time spent up to now is        5.3 secs

     total energy              =    -103.30735533 Ry
     Harris-Foulkes estimate   =    -100.00501210 Ry
     estimated scf accuracy    <       9.15078912 Ry

     iteration # 44     ecut=    30.00 Ry     beta= 0.70
     Davidson diagonalization with overlap
     c_bands:  1 eigenvalues not converged
     ethr =  8.79E-06,  avg # of iterations = 20.0

     negative rho (up, down):  1.951E-02 0.000E+00

     total cpu time spent up to now is        5.4 secs

     total energy              =     -99.71534726 Ry
     Harris-Foulkes estimate   =    -107.56040911 Ry
     estimated scf accuracy    <      69.47665884 Ry

     iteration # 45     ecut=    30.00 Ry     beta= 0.70
     Davidson diagonalization with overlap
     c_bands:  2 eigenvalues not converged
     ethr =  8.79E-06,  avg # of iterations = 20.0

     negative rho (up, down):  1.677E-01 0.000E+00

     total cpu time spent up to now is        5.6 secs

     total energy              =    -105.05262416 Ry
     Harris-Foulkes estimate   =    -100.07429800 Ry
     estimated scf accuracy    <      26.49058213 Ry

     iteration # 46     ecut=    30.00 Ry     beta= 0.70
     Davidson diagonalization with overlap
     c_bands:  1 eigenvalues not converged
     ethr =  8.79E-06,  avg # of iterations = 20.0

     negative rho (up, down):  2.643E-02 0.000E+00

     total cpu time spent up to now is        5.8 secs

     total energy              =    -101.25206961 Ry
     Harris-Foulkes estimate   =    -107.15326849 Ry
     estimated scf accuracy    <      68.73751920 Ry

     iteration # 47     ecut=    30.00 Ry     beta= 0.70
     Davidson diagonalization with overlap
     ethr =  8.79E-06,  avg # of iterations = 20.0

     negative rho (up, down):  2.187E-02 0.000E+00

     total cpu time spent up to now is        5.9 secs

     total energy              =    -101.04357639 Ry
     Harris-Foulkes estimate   =    -101.37408912 Ry
     estimated scf accuracy    <      57.17447060 Ry

     iteration # 48     ecut=    30.00 Ry     beta= 0.70
     Davidson diagonalization with overlap
     ethr =  8.79E-06,  avg # of iterations =  6.0

     negative rho (up, down):  2.034E-02 0.000E+00

     total cpu time spent up to now is        6.0 secs

     total energy              =    -100.79017887 Ry
     Harris-Foulkes estimate   =    -101.04539403 Ry
     estimated scf accuracy    <      55.99609731 Ry

     iteration # 49     ecut=    30.00 Ry     beta= 0.70
     Davidson diagonalization with overlap
     ethr =  8.79E-06,  avg # of iterations = 12.0

     negative rho (up, down):  4.097E-02 0.000E+00

     total cpu time spent up to now is        6.2 secs

     total energy              =     -96.78211758 Ry
     Harris-Foulkes estimate   =    -100.79148691 Ry
     estimated scf accuracy    <      54.70056073 Ry

     iteration # 50     ecut=    30.00 Ry     beta= 0.70
     Davidson diagonalization with overlap
     ethr =  8.79E-06,  avg # of iterations = 19.0

     negative rho (up, down):  5.861E-02 0.000E+00

     total cpu time spent up to now is        6.3 secs

     total energy              =     -99.64445254 Ry
     Harris-Foulkes estimate   =     -99.62918393 Ry
     estimated scf accuracy    <       0.25023962 Ry

     iteration # 51     ecut=    30.00 Ry     beta= 0.70
     Davidson diagonalization with overlap
     ethr =  8.79E-06,  avg # of iterations =  3.0

     negative rho (up, down):  6.185E-02 0.000E+00

     total cpu time spent up to now is        6.4 secs

     total energy              =     -99.52347846 Ry
     Harris-Foulkes estimate   =     -99.64513980 Ry
     estimated scf accuracy    <       0.30269154 Ry

     iteration # 52     ecut=    30.00 Ry     beta= 0.70
     Davidson diagonalization with overlap
     ethr =  8.79E-06,  avg # of iterations =  5.0

     negative rho (up, down):  5.680E-02 0.000E+00

     total cpu time spent up to now is        6.5 secs

     total energy              =     -99.55199803 Ry
     Harris-Foulkes estimate   =     -99.56011869 Ry
     estimated scf accuracy    <       0.01894923 Ry

     iteration # 53     ecut=    30.00 Ry     beta= 0.70
     Davidson diagonalization with overlap
     ethr =  8.79E-06,  avg # of iterations = 10.0

     negative rho (up, down):  5.036E-02 0.000E+00

     total cpu time spent up to now is        6.6 secs

     total energy              =     -99.94041075 Ry
     Harris-Foulkes estimate   =    -100.02093977 Ry
     estimated scf accuracy    <       1.62883248 Ry

     iteration # 54     ecut=    30.00 Ry     beta= 0.70
     Davidson diagonalization with overlap
     ethr =  8.79E-06,  avg # of iterations =  2.0

     negative rho (up, down):  2.391E-02 0.000E+00

     total cpu time spent up to now is        6.7 secs

     total energy              =     -99.62592878 Ry
     Harris-Foulkes estimate   =     -99.94241166 Ry
     estimated scf accuracy    <       1.37720783 Ry

     iteration # 55     ecut=    30.00 Ry     beta= 0.70
     Davidson diagonalization with overlap
     ethr =  8.79E-06,  avg # of iterations =  5.0

     negative rho (up, down):  1.925E-02 0.000E+00

     total cpu time spent up to now is        6.8 secs

     total energy              =     -99.64647411 Ry
     Harris-Foulkes estimate   =     -99.67630520 Ry
     estimated scf accuracy    <       0.38548514 Ry

     iteration # 56     ecut=    30.00 Ry     beta= 0.70
     Davidson diagonalization with overlap
     ethr =  8.79E-06,  avg # of iterations =  4.0

     negative rho (up, down):  1.943E-02 0.000E+00

     total cpu time spent up to now is        6.9 secs

     total energy              =     -99.61058625 Ry
     Harris-Foulkes estimate   =     -99.64854989 Ry
     estimated scf accuracy    <       0.25707870 Ry

     iteration # 57     ecut=    30.00 Ry     beta= 0.70
     Davidson diagonalization with overlap
     ethr =  8.79E-06,  avg # of iterations =  4.0

     negative rho (up, down):  1.756E-02 0.000E+00

     total cpu time spent up to now is        7.0 secs

     total energy              =     -99.56621178 Ry
     Harris-Foulkes estimate   =     -99.61662052 Ry
     estimated scf accuracy    <       0.09247920 Ry

     iteration # 58     ecut=    30.00 Ry     beta= 0.70
     Davidson diagonalization with overlap
     c_bands:  2 eigenvalues not converged
     ethr =  8.79E-06,  avg # of iterations = 20.0

     negative rho (up, down):  1.579E-02 0.000E+00

     total cpu time spent up to now is        7.2 secs

     total energy              =     -99.99149361 Ry
     Harris-Foulkes estimate   =    -100.05821953 Ry
     estimated scf accuracy    <       3.38277979 Ry

     iteration # 59     ecut=    30.00 Ry     beta= 0.70
     Davidson diagonalization with overlap
     ethr =  8.79E-06,  avg # of iterations = 15.0

     negative rho (up, down):  2.033E-02 0.000E+00

     total cpu time spent up to now is        7.4 secs

     total energy              =    -100.13728697 Ry
     Harris-Foulkes estimate   =     -99.99680902 Ry
     estimated scf accuracy    <       2.43054187 Ry

     iteration # 60     ecut=    30.00 Ry     beta= 0.70
     Davidson diagonalization with overlap
     c_bands:  3 eigenvalues not converged
     ethr =  8.79E-06,  avg # of iterations = 20.0

     negative rho (up, down):  1.898E-02 0.000E+00

     total cpu time spent up to now is        7.5 secs

     total energy              =    -100.21897524 Ry
     Harris-Foulkes estimate   =    -100.34004224 Ry
     estimated scf accuracy    <      32.82690976 Ry

     iteration # 61     ecut=    30.00 Ry     beta= 0.70
     Davidson diagonalization with overlap
     ethr =  8.79E-06,  avg # of iterations = 11.0

     negative rho (up, down):  2.943E-02 0.000E+00

     total cpu time spent up to now is        7.7 secs

     total energy              =    -100.22243670 Ry
     Harris-Foulkes estimate   =    -100.22157836 Ry
     estimated scf accuracy    <      32.04532627 Ry

     iteration # 62     ecut=    30.00 Ry     beta= 0.70
     Davidson diagonalization with overlap
     ethr =  8.79E-06,  avg # of iterations =  1.0

     negative rho (up, down):  1.500E-02 0.000E+00

     total cpu time spent up to now is        7.7 secs

     total energy              =     -99.74150175 Ry
     Harris-Foulkes estimate   =    -100.22250673 Ry
     estimated scf accuracy    <      32.03083190 Ry

     iteration # 63     ecut=    30.00 Ry     beta= 0.70
     Davidson diagonalization with overlap
     c_bands:  3 eigenvalues not converged
     ethr =  8.79E-06,  avg # of iterations = 20.0

     negative rho (up, down):  2.230E-02 0.000E+00

     total cpu time spent up to now is        7.9 secs

     total energy              =     -99.86617423 Ry
     Harris-Foulkes estimate   =     -99.98095671 Ry
     estimated scf accuracy    <       2.29848862 Ry

     iteration # 64     ecut=    30.00 Ry     beta= 0.70
     Davidson diagonalization with overlap
     ethr =  8.79E-06,  avg # of iterations =  9.0

     negative rho (up, down):  5.250E-02 0.000E+00

     total cpu time spent up to now is        8.0 secs

     total energy              =     -99.77303692 Ry
     Harris-Foulkes estimate   =     -99.88018009 Ry
     estimated scf accuracy    <       1.44786775 Ry

     iteration # 65     ecut=    30.00 Ry     beta= 0.70
     Davidson diagonalization with overlap
     ethr =  8.79E-06,  avg # of iterations =  4.0

     negative rho (up, down):  7.707E-02 0.000E+00

     total cpu time spent up to now is        8.1 secs

     total energy              =     -99.73849157 Ry
     Harris-Foulkes estimate   =     -99.78291880 Ry
     estimated scf accuracy    <       0.89810882 Ry

     iteration # 66     ecut=    30.00 Ry     beta= 0.70
     Davidson diagonalization with overlap
     ethr =  8.79E-06,  avg # of iterations =  3.0

     negative rho (up, down):  1.080E-01 0.000E+00

     total cpu time spent up to now is        8.2 secs

     total energy              =     -99.58432555 Ry
     Harris-Foulkes estimate   =     -99.74065589 Ry
     estimated scf accuracy    <       0.69210621 Ry

     iteration # 67     ecut=    30.00 Ry     beta= 0.70
     Davidson diagonalization with overlap
     ethr =  8.79E-06,  avg # of iterations =  5.0

     negative rho (up, down):  3.121E-02 0.000E+00

     total cpu time spent up to now is        8.3 secs

     total energy              =     -99.53977925 Ry
     Harris-Foulkes estimate   =     -99.61494880 Ry
     estimated scf accuracy    <       0.18556491 Ry

     iteration # 68     ecut=    30.00 Ry     beta= 0.70
     Davidson diagonalization with overlap
     ethr =  8.79E-06,  avg # of iterations =  5.0

     negative rho (up, down):  1.757E-01 0.000E+00

     total cpu time spent up to now is        8.4 secs

     total energy              =     -99.60689360 Ry
     Harris-Foulkes estimate   =     -99.55858450 Ry
     estimated scf accuracy    <       0.02033272 Ry

     iteration # 69     ecut=    30.00 Ry     beta= 0.70
     Davidson diagonalization with overlap
     ethr =  8.79E-06,  avg # of iterations =  6.0

     negative rho (up, down):  1.535E-01 0.000E+00

     total cpu time spent up to now is        8.5 secs

     total energy              =     -99.63457231 Ry
     Harris-Foulkes estimate   =     -99.62823944 Ry
     estimated scf accuracy    <       0.21501169 Ry

     iteration # 70     ecut=    30.00 Ry     beta= 0.70
     Davidson diagonalization with overlap
     ethr =  8.79E-06,  avg # of iterations =  2.0

     negative rho (up, down):  1.643E-01 0.000E+00

     total cpu time spent up to now is        8.6 secs

     total energy              =     -99.62485455 Ry
     Harris-Foulkes estimate   =     -99.63478917 Ry
     estimated scf accuracy    <       0.24101989 Ry

     iteration # 71     ecut=    30.00 Ry     beta= 0.70
     Davidson diagonalization with overlap
     ethr =  8.79E-06,  avg # of iterations =  2.0

     negative rho (up, down):  7.271E-02 0.000E+00

     total cpu time spent up to now is        8.7 secs

     total energy              =     -99.61583268 Ry
     Harris-Foulkes estimate   =     -99.62516725 Ry
     estimated scf accuracy    <       0.20513080 Ry

     iteration # 72     ecut=    30.00 Ry     beta= 0.70
     Davidson diagonalization with overlap
     ethr =  8.79E-06,  avg # of iterations =  4.0

     negative rho (up, down):  4.937E-02 0.000E+00

     total cpu time spent up to now is        8.8 secs

     total energy              =     -99.58569612 Ry
     Harris-Foulkes estimate   =     -99.61622153 Ry
     estimated scf accuracy    <       0.19580635 Ry

     iteration # 73     ecut=    30.00 Ry     beta= 0.70
     Davidson diagonalization with overlap
     ethr =  8.79E-06,  avg # of iterations =  4.0

     negative rho (up, down):  3.167E-02 0.000E+00

     total cpu time spent up to now is        8.9 secs

     total energy              =     -99.56442713 Ry
     Harris-Foulkes estimate   =     -99.58879201 Ry
     estimated scf accuracy    <       0.10409100 Ry

     iteration # 74     ecut=    30.00 Ry     beta= 0.70
     Davidson diagonalization with overlap
     ethr =  8.79E-06,  avg # of iterations =  4.0

     negative rho (up, down):  1.339E-02 0.000E+00

     total cpu time spent up to now is        9.0 secs

     total energy              =     -99.54142566 Ry
     Harris-Foulkes estimate   =     -99.56756308 Ry
     estimated scf accuracy    <       0.03878234 Ry

     iteration # 75     ecut=    30.00 Ry     beta= 0.70
     Davidson diagonalization with overlap
     ethr =  8.79E-06,  avg # of iterations =  4.0

     negative rho (up, down):  8.619E-03 0.000E+00

     total cpu time spent up to now is        9.1 secs

     total energy              =     -99.55298283 Ry
     Harris-Foulkes estimate   =     -99.55508875 Ry
     estimated scf accuracy    <       0.00410279 Ry

     iteration # 76     ecut=    30.00 Ry     beta= 0.70
     Davidson diagonalization with overlap
     ethr =  8.79E-06,  avg # of iterations =  3.0

     negative rho (up, down):  8.692E-03 0.000E+00

     total cpu time spent up to now is        9.2 secs

     total energy              =     -99.55374636 Ry
     Harris-Foulkes estimate   =     -99.55374677 Ry
     estimated scf accuracy    <       0.00000300 Ry

     iteration # 77     ecut=    30.00 Ry     beta= 0.70
     Davidson diagonalization with overlap
     ethr =  3.00E-08,  avg # of iterations =  9.0

     negative rho (up, down):  8.593E-03 0.000E+00

     total cpu time spent up to now is        9.3 secs

     total energy              =    -100.03049986 Ry
     Harris-Foulkes estimate   =    -100.04094095 Ry
     estimated scf accuracy    <       1.65897601 Ry

     iteration # 78     ecut=    30.00 Ry     beta= 0.70
     Davidson diagonalization with overlap
     ethr =  3.00E-08,  avg # of iterations =  3.0

     negative rho (up, down):  8.597E-03 0.000E+00

     total cpu time spent up to now is        9.4 secs

     total energy              =    -100.02987991 Ry
     Harris-Foulkes estimate   =    -100.03053079 Ry
     estimated scf accuracy    <       1.62672638 Ry

     iteration # 79     ecut=    30.00 Ry     beta= 0.70
     Davidson diagonalization with overlap
     ethr =  3.00E-08,  avg # of iterations =  1.0

     negative rho (up, down):  8.663E-03 0.000E+00

     total cpu time spent up to now is        9.5 secs

     total energy              =    -100.03707733 Ry
     Harris-Foulkes estimate   =    -100.02988000 Ry
     estimated scf accuracy    <       1.62496943 Ry

     iteration # 80     ecut=    30.00 Ry     beta= 0.70
     Davidson diagonalization with overlap
     ethr =  3.00E-08,  avg # of iterations =  3.0

     negative rho (up, down):  8.639E-03 0.000E+00

     total cpu time spent up to now is        9.6 secs

     total energy              =    -100.03450146 Ry
     Harris-Foulkes estimate   =    -100.03709134 Ry
     estimated scf accuracy    <       1.64682970 Ry

     iteration # 81     ecut=    30.00 Ry     beta= 0.70
     Davidson diagonalization with overlap
     ethr =  3.00E-08,  avg # of iterations =  2.0

     negative rho (up, down):  8.665E-03 0.000E+00

     total cpu time spent up to now is        9.7 secs

     total energy              =    -100.04977438 Ry
     Harris-Foulkes estimate   =    -100.03450322 Ry
     estimated scf accuracy    <       1.63904957 Ry

     iteration # 82     ecut=    30.00 Ry     beta= 0.70
     Davidson diagonalization with overlap
     ethr =  3.00E-08,  avg # of iterations =  4.0

     negative rho (up, down):  8.946E-03 0.000E+00

     total cpu time spent up to now is        9.8 secs

     total energy              =    -100.08718335 Ry
     Harris-Foulkes estimate   =    -100.04983685 Ry
     estimated scf accuracy    <       1.68537203 Ry

     iteration # 83     ecut=    30.00 Ry     beta= 0.70
     Davidson diagonalization with overlap
     ethr =  3.00E-08,  avg # of iterations =  4.0

     negative rho (up, down):  8.915E-03 0.000E+00

     total cpu time spent up to now is        9.9 secs

     total energy              =     -99.99605424 Ry
     Harris-Foulkes estimate   =    -100.08753944 Ry
     estimated scf accuracy    <       1.79802384 Ry

     iteration # 84     ecut=    30.00 Ry     beta= 0.70
     Davidson diagonalization with overlap
     ethr =  3.00E-08,  avg # of iterations =  5.0

     negative rho (up, down):  1.013E-02 0.000E+00

     total cpu time spent up to now is       10.0 secs

     total energy              =     -99.51148062 Ry
     Harris-Foulkes estimate   =     -99.99811389 Ry
     estimated scf accuracy    <       1.52938893 Ry

     iteration # 85     ecut=    30.00 Ry     beta= 0.70
     Davidson diagonalization with overlap
     ethr =  3.00E-08,  avg # of iterations = 11.0

     negative rho (up, down):  1.397E-02 0.000E+00

     total cpu time spent up to now is       10.1 secs

     total energy              =     -99.53389182 Ry
     Harris-Foulkes estimate   =     -99.62540701 Ry
     estimated scf accuracy    <       0.13669857 Ry

     iteration # 86     ecut=    30.00 Ry     beta= 0.70
     Davidson diagonalization with overlap
     c_bands:  5 eigenvalues not converged
     ethr =  3.00E-08,  avg # of iterations = 20.0

     negative rho (up, down):  1.480E-02 0.000E+00

     total cpu time spent up to now is       10.3 secs

     total energy              =    -100.78400223 Ry
     Harris-Foulkes estimate   =    -100.73872231 Ry
     estimated scf accuracy    <      42.04590746 Ry

     iteration # 87     ecut=    30.00 Ry     beta= 0.70
     Davidson diagonalization with overlap
     c_bands:  4 eigenvalues not converged
     ethr =  3.00E-08,  avg # of iterations = 20.0

     negative rho (up, down):  1.502E-02 0.000E+00

     total cpu time spent up to now is       10.5 secs

     total energy              =    -100.73875977 Ry
     Harris-Foulkes estimate   =    -100.81963108 Ry
     estimated scf accuracy    <      50.22032621 Ry

     iteration # 88     ecut=    30.00 Ry     beta= 0.70
     Davidson diagonalization with overlap
     c_bands:  1 eigenvalues not converged
     ethr =  3.00E-08,  avg # of iterations = 20.0

     negative rho (up, down):  1.630E-02 0.000E+00

     total cpu time spent up to now is       10.7 secs

     total energy              =    -100.85607610 Ry
     Harris-Foulkes estimate   =    -100.76283340 Ry
     estimated scf accuracy    <      52.11794430 Ry

     iteration # 89     ecut=    30.00 Ry     beta= 0.70
     Davidson diagonalization with overlap
     c_bands:  1 eigenvalues not converged
     ethr =  3.00E-08,  avg # of iterations = 20.0

     negative rho (up, down):  1.614E-02 0.000E+00

     total cpu time spent up to now is       10.9 secs

     total energy              =    -100.85674485 Ry
     Harris-Foulkes estimate   =    -100.86204663 Ry
     estimated scf accuracy    <      54.81649335 Ry

     iteration # 90     ecut=    30.00 Ry     beta= 0.70
     Davidson diagonalization with overlap
     ethr =  3.00E-08,  avg # of iterations = 18.0

     negative rho (up, down):  2.079E-02 0.000E+00

     total cpu time spent up to now is       11.0 secs

     total energy              =    -100.93533713 Ry
     Harris-Foulkes estimate   =    -100.85678510 Ry
     estimated scf accuracy    <      54.74589647 Ry

     iteration # 91     ecut=    30.00 Ry     beta= 0.70
     Davidson diagonalization with overlap
     c_bands:  1 eigenvalues not converged
     ethr =  3.00E-08,  avg # of iterations = 20.0

     negative rho (up, down):  2.453E-02 0.000E+00

     total cpu time spent up to now is       11.2 secs

     total energy              =    -101.05955026 Ry
     Harris-Foulkes estimate   =    -100.93621420 Ry
     estimated scf accuracy    <      55.57268455 Ry

     iteration # 92     ecut=    30.00 Ry     beta= 0.70
     Davidson diagonalization with overlap
     c_bands:  1 eigenvalues not converged
     ethr =  3.00E-08,  avg # of iterations = 20.0

     negative rho (up, down):  1.279E-02 0.000E+00

     total cpu time spent up to now is       11.3 secs

     total energy              =     -99.86134027 Ry
     Harris-Foulkes estimate   =    -101.06027412 Ry
     estimated scf accuracy    <      56.35811236 Ry

     iteration # 93     ecut=    30.00 Ry     beta= 0.70
     Davidson diagonalization with overlap
     c_bands:  3 eigenvalues not converged
     ethr =  3.00E-08,  avg # of iterations = 20.0

     negative rho (up, down):  2.755E-02 0.000E+00

     total cpu time spent up to now is       11.5 secs

     total energy              =     -99.37533543 Ry
     Harris-Foulkes estimate   =    -100.04473641 Ry
     estimated scf accuracy    <      15.28611642 Ry

     iteration # 94     ecut=    30.00 Ry     beta= 0.70
     Davidson diagonalization with overlap
     c_bands:  3 eigenvalues not converged
     ethr =  3.00E-08,  avg # of iterations = 20.0

     negative rho (up, down):  1.467E-01 0.000E+00

     total cpu time spent up to now is       11.7 secs

     total energy              =     -99.61188369 Ry
     Harris-Foulkes estimate   =     -99.82281798 Ry
     estimated scf accuracy    <       1.10501965 Ry

     iteration # 95     ecut=    30.00 Ry     beta= 0.70
     Davidson diagonalization with overlap
     ethr =  3.00E-08,  avg # of iterations = 11.0

     negative rho (up, down):  1.080E-01 0.000E+00

     total cpu time spent up to now is       11.9 secs

     total energy              =     -99.64909832 Ry
     Harris-Foulkes estimate   =     -99.65369822 Ry
     estimated scf accuracy    <       0.32080141 Ry

     iteration # 96     ecut=    30.00 Ry     beta= 0.70
     Davidson diagonalization with overlap
     ethr =  3.00E-08,  avg # of iterations = 15.0

     negative rho (up, down):  4.416E-02 0.000E+00

     total cpu time spent up to now is       12.0 secs

     total energy              =     -99.60066560 Ry
     Harris-Foulkes estimate   =     -99.70057469 Ry
     estimated scf accuracy    <       0.48188750 Ry

     iteration # 97     ecut=    30.00 Ry     beta= 0.70
     Davidson diagonalization with overlap
     ethr =  3.00E-08,  avg # of iterations = 10.0

     negative rho (up, down):  1.669E-02 0.000E+00

     total cpu time spent up to now is       12.1 secs

     total energy              =     -99.59066174 Ry
     Harris-Foulkes estimate   =     -99.61975896 Ry
     estimated scf accuracy    <       0.10946827 Ry

     iteration # 98     ecut=    30.00 Ry     beta= 0.70
     Davidson diagonalization with overlap
     c_bands:  1 eigenvalues not converged
     ethr =  3.00E-08,  avg # of iterations = 20.0

     negative rho (up, down):  2.813E-02 0.000E+00

     total cpu time spent up to now is       12.3 secs

     total energy              =     -99.79457708 Ry
     Harris-Foulkes estimate   =     -99.86098300 Ry
     estimated scf accuracy    <       1.33949661 Ry

     iteration # 99     ecut=    30.00 Ry     beta= 0.70
     Davidson diagonalization with overlap
     ethr =  3.00E-08,  avg # of iterations = 10.0

     negative rho (up, down):  2.824E-02 0.000E+00

     total cpu time spent up to now is       12.4 secs

     total energy              =     -99.79473586 Ry
     Harris-Foulkes estimate   =     -99.79851339 Ry
     estimated scf accuracy    <       0.99825789 Ry

     iteration #100     ecut=    30.00 Ry     beta= 0.70
     Davidson diagonalization with overlap
     ethr =  3.00E-08,  avg # of iterations =  4.0

     negative rho (up, down):  1.518E-02 0.000E+00

     total cpu time spent up to now is       12.5 secs

     total energy              =     -99.84949879 Ry
     Harris-Foulkes estimate   =     -99.79474836 Ry
     estimated scf accuracy    <       0.98065052 Ry

     End of self-consistent calculation

     convergence NOT achieved after 100 iterations: stopping

     Writing output data file Ni.save
 
     init_run     :      0.22s CPU      0.24s WALL (       1 calls)
     electrons    :     10.06s CPU     11.96s WALL (       1 calls)

     Called by init_run:
     wfcinit      :      0.01s CPU      0.01s WALL (       1 calls)
     potinit      :      0.02s CPU      0.02s WALL (       1 calls)

     Called by electrons:
     c_bands      :      3.92s CPU      4.34s WALL (     100 calls)
     sum_band     :      2.94s CPU      3.55s WALL (     100 calls)
     v_of_rho     :      0.18s CPU      0.19s WALL (     101 calls)
     newd         :      2.50s CPU      3.08s WALL (     101 calls)
     mix_rho      :      0.50s CPU      0.50s WALL (     100 calls)

     Called by c_bands:
     init_us_2    :      0.07s CPU      0.07s WALL (     201 calls)
     cegterg      :      3.77s CPU      4.17s WALL (     100 calls)

     Called by sum_band:
     sum_band:bec :      0.00s CPU      0.00s WALL (     100 calls)
     addusdens    :      2.54s CPU      3.14s WALL (     100 calls)

     Called by *egterg:
     h_psi        :      2.05s CPU      2.11s WALL (     929 calls)
     s_psi        :      0.04s CPU      0.04s WALL (     929 calls)
     g_psi        :      0.02s CPU      0.02s WALL (     828 calls)
     cdiaghg      :      0.83s CPU      0.99s WALL (     928 calls)

     Called by h_psi:
     h_psi:pot    :      2.04s CPU      2.09s WALL (     929 calls)
     h_psi:calbec :      0.08s CPU      0.08s WALL (     929 calls)
     vloc_psi     :      1.92s CPU      1.97s WALL (     929 calls)
     add_vuspsi   :      0.04s CPU      0.04s WALL (     929 calls)

     General routines
     calbec       :      0.08s CPU      0.09s WALL (    1029 calls)
     fft          :      0.33s CPU      0.33s WALL (     606 calls)
     fftw         :      1.85s CPU      1.90s WALL (    7452 calls)
     davcio       :      0.00s CPU      0.00s WALL (      19 calls)
 
     Parallel routines
     fft_scatt_xy :      0.20s CPU      0.21s WALL (    8058 calls)
     fft_scatt_yz :      0.57s CPU      0.58s WALL (    8058 calls)
 
     PWSCF        :    10.85s CPU        12.90s WALL

 
   This run was terminated on:  16: 0: 3  27Jun2019            

=------------------------------------------------------------------------------=
   JOB DONE.
=------------------------------------------------------------------------------=
