
     Program PWSCF v.6.2 (svn rev. 14038) starts on  1Jul2019 at 10:41: 3 

     This program is part of the open-source Quantum ESPRESSO suite
     for quantum simulation of materials; please cite
         "P. Giannozzi et al., J. Phys.:Condens. Matter 21 395502 (2009);
         "P. Giannozzi et al., J. Phys.:Condens. Matter 29 465901 (2017);
          URL http://www.quantum-espresso.org", 
     in publications or presentations arising from this work. More details at
     http://www.quantum-espresso.org/quote

     Parallel version (MPI & OpenMP), running on      20 processor cores
     Number of MPI processes:                20
     Threads/MPI process:                     1

     MPI processes distributed on     1 nodes
     R & G space division:  proc/nbgrp/npool/nimage =      20
     Reading input from NiO.in

     Current dimensions of program PWSCF are:
     Max number of different atomic species (ntypx) = 10
     Max number of k-points (npk) =  40000
     Max angular momentum in pseudopotentials (lmaxx) =  3
               file Ni.pz-n-rrkjus_psl.0.1.UPF: wavefunction(s)  3D renormalized

     Subspace diagonalization in iterative solution of the eigenvalue problem:
     one sub-group per band group will be used
     scalapack distributed-memory algorithm (size of sub-group:  3*  3 procs)

 
     Parallelization info
     --------------------
     sticks:   dense  smooth     PW     G-vecs:    dense   smooth      PW
     Min          27      27      8                  429      429      73
     Max          28      28      9                  431      431      76
     Sum         559     559    169                 8609     8609    1471
 


     bravais-lattice index     =            2
     lattice parameter (alat)  =       8.1919  a.u.
     unit-cell volume          =     137.4361 (a.u.)^3
     number of atoms/cell      =            2
     number of atomic types    =            2
     number of electrons       =        16.00
     number of Kohn-Sham states=           12
     kinetic-energy cutoff     =      60.0000  Ry
     charge density cutoff     =     240.0000  Ry
     convergence threshold     =      1.0E-08
     mixing beta               =       0.7000
     number of iterations used =            8  plain     mixing
     Exchange-correlation      = LDA ( 1  1  0  0 0 0)
     nstep                     =          300


     celldm(1)=   8.191944  celldm(2)=   0.000000  celldm(3)=   0.000000
     celldm(4)=   0.000000  celldm(5)=   0.000000  celldm(6)=   0.000000

     crystal axes: (cart. coord. in units of alat)
               a(1) = (  -0.500000   0.000000   0.500000 )  
               a(2) = (   0.000000   0.500000   0.500000 )  
               a(3) = (  -0.500000   0.500000   0.000000 )  

     reciprocal axes: (cart. coord. in units 2 pi/alat)
               b(1) = ( -1.000000 -1.000000  1.000000 )  
               b(2) = (  1.000000  1.000000  1.000000 )  
               b(3) = ( -1.000000  1.000000 -1.000000 )  


     PseudoPot. # 1 for Ni read from file:
     ./Ni.pz-n-rrkjus_psl.0.1.UPF
     MD5 check sum: 4def80e42349afdd14834ce81d852c61
     Pseudo is Ultrasoft + core correction, Zval = 10.0
     Generated using "atomic" code by A. Dal Corso v.5.0.2 svn rev. 9415
     Using radial grid of 1195 points,  6 beta functions with: 
                l(1) =   0
                l(2) =   0
                l(3) =   1
                l(4) =   1
                l(5) =   2
                l(6) =   2
     Q(r) pseudized with 0 coefficients 


     PseudoPot. # 2 for O  read from file:
     ./O.pz-n-rrkjus_psl.0.1.UPF
     MD5 check sum: 6e384d5705d3ad042f52b90450e69d34
     Pseudo is Ultrasoft + core correction, Zval =  6.0
     Generated using "atomic" code by A. Dal Corso v.5.0.2 svn rev. 9415
     Using radial grid of 1095 points,  4 beta functions with: 
                l(1) =   0
                l(2) =   0
                l(3) =   1
                l(4) =   1
     Q(r) pseudized with 0 coefficients 


     atomic species   valence    mass     pseudopotential
        Ni            10.00    58.69340     Ni( 1.00)
        O              6.00    15.99940     O ( 1.00)

     48 Sym. Ops., with inversion, found



   Cartesian axes

     site n.     atom                  positions (alat units)
         1           Ni  tau(   1) = (   0.0000000   0.0000000   0.0000000  )
         2           O   tau(   2) = (  -0.5000000   0.5000000   0.5000000  )

     number of k points=    10  gaussian smearing, width (Ry)=  0.0100
                       cart. coord. in units 2pi/alat
        k(    1) = (  -0.1250000   0.1250000   0.1250000), wk =   0.0625000
        k(    2) = (  -0.3750000   0.3750000  -0.1250000), wk =   0.1875000
        k(    3) = (   0.3750000  -0.3750000   0.6250000), wk =   0.1875000
        k(    4) = (   0.1250000  -0.1250000   0.3750000), wk =   0.1875000
        k(    5) = (  -0.1250000   0.6250000   0.1250000), wk =   0.1875000
        k(    6) = (   0.6250000  -0.1250000   0.8750000), wk =   0.3750000
        k(    7) = (   0.3750000   0.1250000   0.6250000), wk =   0.3750000
        k(    8) = (  -0.1250000  -0.8750000   0.1250000), wk =   0.1875000
        k(    9) = (  -0.3750000   0.3750000   0.3750000), wk =   0.0625000
        k(   10) = (   0.3750000  -0.3750000   1.1250000), wk =   0.1875000

     Dense  grid:     8609 G-vectors     FFT dimensions: (  30,  30,  30)

     Estimated max dynamical RAM per process >       8.19 MB

     Estimated total dynamical RAM >     163.77 MB

     Check: negative/imaginary core charge=   -0.000393    0.000000

     Initial potential from superposition of free atoms

     starting charge   15.99980, renormalised to   16.00000
     Starting wfc are   13 randomized atomic wfcs

     total cpu time spent up to now is        1.1 secs

     Self-consistent Calculation

     iteration #  1     ecut=    60.00 Ry     beta= 0.70
     Davidson diagonalization with overlap
     ethr =  1.00E-02,  avg # of iterations =  3.0

     Threshold (ethr) on eigenvalues was too large:
     Diagonalizing with lowered threshold

     Davidson diagonalization with overlap
     ethr =  7.10E-04,  avg # of iterations =  1.1

     total cpu time spent up to now is        1.2 secs

     total energy              =    -133.59367205 Ry
     Harris-Foulkes estimate   =    -133.66568340 Ry
     estimated scf accuracy    <       0.11093953 Ry

     iteration #  2     ecut=    60.00 Ry     beta= 0.70
     Davidson diagonalization with overlap
     ethr =  6.93E-04,  avg # of iterations =  2.2

     total cpu time spent up to now is        1.3 secs

     total energy              =    -133.60028361 Ry
     Harris-Foulkes estimate   =    -133.66310542 Ry
     estimated scf accuracy    <       0.12869831 Ry

     iteration #  3     ecut=    60.00 Ry     beta= 0.70
     Davidson diagonalization with overlap
     ethr =  6.93E-04,  avg # of iterations =  2.0

     total cpu time spent up to now is        1.4 secs

     total energy              =    -133.62177870 Ry
     Harris-Foulkes estimate   =    -133.64681554 Ry
     estimated scf accuracy    <       0.08194789 Ry

     iteration #  4     ecut=    60.00 Ry     beta= 0.70
     Davidson diagonalization with overlap
     ethr =  5.12E-04,  avg # of iterations =  1.2

     total cpu time spent up to now is        1.5 secs

     total energy              =    -133.63361430 Ry
     Harris-Foulkes estimate   =    -133.63399148 Ry
     estimated scf accuracy    <       0.00110978 Ry

     iteration #  5     ecut=    60.00 Ry     beta= 0.70
     Davidson diagonalization with overlap
     ethr =  6.94E-06,  avg # of iterations =  2.0

     total cpu time spent up to now is        1.5 secs

     total energy              =    -133.63387749 Ry
     Harris-Foulkes estimate   =    -133.63388482 Ry
     estimated scf accuracy    <       0.00002479 Ry

     iteration #  6     ecut=    60.00 Ry     beta= 0.70
     Davidson diagonalization with overlap
     ethr =  1.55E-07,  avg # of iterations =  2.2

     total cpu time spent up to now is        1.6 secs

     total energy              =    -133.63387975 Ry
     Harris-Foulkes estimate   =    -133.63388176 Ry
     estimated scf accuracy    <       0.00000496 Ry

     iteration #  7     ecut=    60.00 Ry     beta= 0.70
     Davidson diagonalization with overlap
     ethr =  3.10E-08,  avg # of iterations =  1.2

     total cpu time spent up to now is        1.7 secs

     total energy              =    -133.63388040 Ry
     Harris-Foulkes estimate   =    -133.63388043 Ry
     estimated scf accuracy    <       0.00000008 Ry

     iteration #  8     ecut=    60.00 Ry     beta= 0.70
     Davidson diagonalization with overlap
     ethr =  4.95E-10,  avg # of iterations =  2.8

     total cpu time spent up to now is        1.8 secs

     total energy              =    -133.63388044 Ry
     Harris-Foulkes estimate   =    -133.63388044 Ry
     estimated scf accuracy    <       0.00000001 Ry

     iteration #  9     ecut=    60.00 Ry     beta= 0.70
     Davidson diagonalization with overlap
     ethr =  6.46E-11,  avg # of iterations =  2.0

     total cpu time spent up to now is        1.9 secs

     End of self-consistent calculation

          k =-0.1250 0.1250 0.1250 (  1064 PWs)   bands (ev):

    -9.7617   5.5318   6.0574   6.0574   7.8673   7.8673   7.9701   8.5623
     8.5623  11.3181  23.8284  26.5824

          k =-0.3750 0.3750-0.1250 (  1076 PWs)   bands (ev):

    -9.1642   3.3059   4.9208   5.0961   8.1167   8.2345   8.5108   9.0316
    10.1260  14.0560  20.1317  22.1997

          k = 0.3750-0.3750 0.6250 (  1086 PWs)   bands (ev):

    -8.7739   2.3353   4.4667   4.6808   8.2917   8.4710   8.7137  10.0161
    10.1141  15.3847  18.0688  21.5169

          k = 0.1250-0.1250 0.3750 (  1069 PWs)   bands (ev):

    -9.4311   4.0511   5.4936   5.6712   7.7183   8.1633   8.3770   8.7501
     9.2438  13.1461  21.8402  23.5733

          k =-0.1250 0.6250 0.1250 (  1067 PWs)   bands (ev):

    -8.9903   3.2038   5.1191   5.3892   7.4842   8.3866   8.6759   8.8388
     9.2120  15.0039  19.7568  21.2381

          k = 0.6250-0.1250 0.8750 (  1085 PWs)   bands (ev):

    -8.6551   3.3711   4.1129   4.6968   8.0163   8.4823   8.6855   8.8345
     9.4168  16.6342  18.6098  19.6454

          k = 0.3750 0.1250 0.6250 (  1075 PWs)   bands (ev):

    -8.8371   2.9077   4.5340   4.7910   8.0679   8.4494   8.6753   9.0659
    10.0082  15.7544  18.7714  20.4999

          k =-0.1250-0.8750 0.1250 (  1080 PWs)   bands (ev):

    -8.7116   3.2122   4.8937   5.2954   7.3336   8.5525   8.6876   8.7146
     8.8263  15.3226  18.9891  20.6132

          k =-0.3750 0.3750 0.3750 (  1083 PWs)   bands (ev):

    -8.9724   2.5494   4.7688   4.7688   8.3396   8.3396   8.5779  10.1533
    10.1533  14.2337  18.8464  23.1479

          k = 0.3750-0.3750 1.1250 (  1081 PWs)   bands (ev):

    -8.6953   2.9073   4.1079   4.6953   8.2484   8.4391   8.6670   9.1033
    10.0413  17.0547  17.5766  19.7754

     the Fermi energy is     9.1722 ev

!    total energy              =    -133.63388044 Ry
     Harris-Foulkes estimate   =    -133.63388044 Ry
     estimated scf accuracy    <          1.1E-09 Ry

     The total energy is the sum of the following terms:

     one-electron contribution =     -20.83620018 Ry
     hartree contribution      =      28.78573650 Ry
     xc contribution           =     -49.50192971 Ry
     ewald contribution        =     -92.07938905 Ry
     smearing contrib. (-TS)   =      -0.00209800 Ry

     convergence has been achieved in   9 iterations

     Forces acting on atoms (cartesian axes, Ry/au):

     atom    1 type  1   force =    -0.00000000   -0.00000000    0.00000000
     atom    2 type  2   force =     0.00000000    0.00000000   -0.00000000

     Total force =     0.000000     Total SCF correction =     0.000000


     Computing stress (Cartesian axis) and pressure

          total   stress  (Ry/bohr**3)                   (kbar)     P= -330.63
  -0.00224755   0.00000000   0.00000000       -330.63      0.00      0.00
   0.00000000  -0.00224755  -0.00000000          0.00   -330.63     -0.00
   0.00000000  -0.00000000  -0.00224755          0.00     -0.00   -330.63


     BFGS Geometry Optimization

     number of scf cycles    =   1
     number of bfgs steps    =   0

     enthalpy new            =    -133.6338804380 Ry

     new trust radius        =       0.1317436494 bohr
     new conv_thr            =       0.0000000100 Ry

     new unit-cell volume =    115.54639 a.u.^3 (    17.12221 Ang^3 )
     density =      7.24383 g/cm^3

CELL_PARAMETERS (alat=  8.19194389)
  -0.471905633  -0.000000000   0.471905633
   0.000000000   0.471905633   0.471905633
  -0.471905633   0.471905633  -0.000000000

ATOMIC_POSITIONS (crystal)
Ni       0.000000000  -0.000000000  -0.000000000
O        0.500000000   0.500000000   0.500000000



     Writing output data file NiO.save
     NEW-OLD atomic charge density approx. for the potential

     Check: negative/imaginary core charge=   -0.000158    0.000000
     extrapolated charge   12.96891, renormalised to   16.00000

     total cpu time spent up to now is        2.1 secs

     Self-consistent Calculation

     iteration #  1     ecut=    60.00 Ry     beta= 0.70
     Davidson diagonalization with overlap
     ethr =  1.00E-06,  avg # of iterations =  4.8

     total cpu time spent up to now is        2.3 secs

     total energy              =    -127.52752054 Ry
     Harris-Foulkes estimate   =    -138.98857653 Ry
     estimated scf accuracy    <       5.60165188 Ry

     iteration #  2     ecut=    60.00 Ry     beta= 0.70
     Davidson diagonalization with overlap
     ethr =  1.00E-02,  avg # of iterations =  3.8

     total cpu time spent up to now is        2.4 secs

     total energy              =    -131.07111955 Ry
     Harris-Foulkes estimate   =    -145.30430754 Ry
     estimated scf accuracy    <      47.54564744 Ry

     iteration #  3     ecut=    60.00 Ry     beta= 0.70
     Davidson diagonalization with overlap
     ethr =  1.00E-02,  avg # of iterations =  3.4

     total cpu time spent up to now is        2.6 secs

     total energy              =    -133.79523107 Ry
     Harris-Foulkes estimate   =    -134.34575541 Ry
     estimated scf accuracy    <       3.05152256 Ry

     iteration #  4     ecut=    60.00 Ry     beta= 0.70
     Davidson diagonalization with overlap
     ethr =  1.00E-02,  avg # of iterations =  1.0

     total cpu time spent up to now is        2.6 secs

     total energy              =    -133.75040329 Ry
     Harris-Foulkes estimate   =    -133.88785613 Ry
     estimated scf accuracy    <       1.12703552 Ry

     iteration #  5     ecut=    60.00 Ry     beta= 0.70
     Davidson diagonalization with overlap
     ethr =  7.04E-03,  avg # of iterations =  1.0

     total cpu time spent up to now is        2.7 secs

     total energy              =    -133.69152594 Ry
     Harris-Foulkes estimate   =    -133.77623487 Ry
     estimated scf accuracy    <       0.48519570 Ry

     iteration #  6     ecut=    60.00 Ry     beta= 0.70
     Davidson diagonalization with overlap
     ethr =  3.03E-03,  avg # of iterations =  1.0

     total cpu time spent up to now is        2.7 secs

     total energy              =    -133.66160239 Ry
     Harris-Foulkes estimate   =    -133.70470997 Ry
     estimated scf accuracy    <       0.17571766 Ry

     iteration #  7     ecut=    60.00 Ry     beta= 0.70
     Davidson diagonalization with overlap
     ethr =  1.10E-03,  avg # of iterations =  1.6

     total cpu time spent up to now is        2.8 secs

     total energy              =    -133.66549090 Ry
     Harris-Foulkes estimate   =    -133.67300458 Ry
     estimated scf accuracy    <       0.02544965 Ry

     iteration #  8     ecut=    60.00 Ry     beta= 0.70
     Davidson diagonalization with overlap
     ethr =  1.59E-04,  avg # of iterations =  2.0

     total cpu time spent up to now is        2.9 secs

     total energy              =    -133.66739181 Ry
     Harris-Foulkes estimate   =    -133.66815142 Ry
     estimated scf accuracy    <       0.00210574 Ry

     iteration #  9     ecut=    60.00 Ry     beta= 0.70
     Davidson diagonalization with overlap
     ethr =  1.32E-05,  avg # of iterations =  2.5

     total cpu time spent up to now is        3.0 secs

     total energy              =    -133.66790188 Ry
     Harris-Foulkes estimate   =    -133.66784851 Ry
     estimated scf accuracy    <       0.00000514 Ry

     iteration # 10     ecut=    60.00 Ry     beta= 0.70
     Davidson diagonalization with overlap
     ethr =  3.21E-08,  avg # of iterations =  3.6

     total cpu time spent up to now is        3.1 secs

     total energy              =    -133.66768927 Ry
     Harris-Foulkes estimate   =    -133.66806677 Ry
     estimated scf accuracy    <       0.00093417 Ry

     iteration # 11     ecut=    60.00 Ry     beta= 0.70
     Davidson diagonalization with overlap
     ethr =  3.21E-08,  avg # of iterations =  3.4

     total cpu time spent up to now is        3.2 secs

     total energy              =    -133.66784991 Ry
     Harris-Foulkes estimate   =    -133.66784993 Ry
     estimated scf accuracy    <       0.00000210 Ry

     iteration # 12     ecut=    60.00 Ry     beta= 0.70
     Davidson diagonalization with overlap
     ethr =  1.31E-08,  avg # of iterations =  1.0

     total cpu time spent up to now is        3.3 secs

     total energy              =    -133.66784976 Ry
     Harris-Foulkes estimate   =    -133.66784995 Ry
     estimated scf accuracy    <       0.00000214 Ry

     iteration # 13     ecut=    60.00 Ry     beta= 0.70
     Davidson diagonalization with overlap
     ethr =  1.31E-08,  avg # of iterations =  1.0

     total cpu time spent up to now is        3.4 secs

     total energy              =    -133.66784945 Ry
     Harris-Foulkes estimate   =    -133.66784978 Ry
     estimated scf accuracy    <       0.00000120 Ry

     iteration # 14     ecut=    60.00 Ry     beta= 0.70
     Davidson diagonalization with overlap
     ethr =  7.50E-09,  avg # of iterations =  1.1

     total cpu time spent up to now is        3.4 secs

     total energy              =    -133.66784956 Ry
     Harris-Foulkes estimate   =    -133.66784957 Ry
     estimated scf accuracy    <       0.00000004 Ry

     iteration # 15     ecut=    60.00 Ry     beta= 0.70
     Davidson diagonalization with overlap
     ethr =  2.22E-10,  avg # of iterations =  2.0

     total cpu time spent up to now is        3.5 secs

     End of self-consistent calculation

          k =-0.1324 0.1324 0.1324 (  1064 PWs)   bands (ev):

    -8.1660   7.8491   8.3689   8.3689  10.5477  10.5477  10.7079  11.4983
    11.4983  15.3681  27.8446  31.2052

          k =-0.3973 0.3973-0.1324 (  1076 PWs)   bands (ev):

    -7.3222   5.1596   6.9506   7.1505  10.8893  11.0834  11.4370  12.1553
    13.5144  18.1456  24.2545  26.5644

          k = 0.3973-0.3973 0.6622 (  1086 PWs)   bands (ev):

    -6.7456   3.9142   6.3861   6.6553  11.1409  11.3886  11.7125  13.4214
    13.5013  19.0566  22.7250  25.6709

          k = 0.1324-0.1324 0.3973 (  1069 PWs)   bands (ev):

    -7.7055   6.0557   7.6633   7.8830  10.3370  10.9725  11.2682  11.7438
    12.4773  17.2806  25.8802  28.1297

          k =-0.1324 0.6622 0.1324 (  1067 PWs)   bands (ev):

    -7.0879   4.9702   7.2056   7.5494  10.0097  11.2848  11.6676  11.8697
    12.5250  19.2936  23.9897  25.2049

          k = 0.6622-0.1324 0.9271 (  1085 PWs)   bands (ev):

    -6.6066   5.1116   5.9764   6.7014  10.7579  11.4104  11.6762  11.9936
    12.6271  21.0570  22.6867  23.7045

          k = 0.3973 0.1324 0.6622 (  1075 PWs)   bands (ev):

    -6.8546   4.6128   6.4676   6.7986  10.8280  11.3767  11.6604  12.2246
    13.3963  19.9013  23.0583  24.5703

          k =-0.1324-0.9271 0.1324 (  1080 PWs)   bands (ev):

    -6.7028   4.9245   6.9443   7.4517   9.8034  11.5063  11.6804  11.7131
    12.0606  19.5696  23.1845  24.5633

          k =-0.3973 0.3973 0.3973 (  1083 PWs)   bands (ev):

    -7.0346   4.2179   6.7585   6.7585  11.2051  11.2051  11.5277  13.5506
    13.5506  18.0231  23.2712  27.4641

          k = 0.3973-0.3973 1.1920 (  1081 PWs)   bands (ev):

    -6.6484   4.5785   5.9564   6.6836  11.0976  11.3373  11.6525  12.3050
    13.4107  20.9148  22.1909  23.8243

     the Fermi energy is    12.3906 ev

!    total energy              =    -133.66784956 Ry
     Harris-Foulkes estimate   =    -133.66784956 Ry
     estimated scf accuracy    <          7.6E-10 Ry

     The total energy is the sum of the following terms:

     one-electron contribution =     -12.62043609 Ry
     hartree contribution      =      26.25989248 Ry
     xc contribution           =     -49.74484848 Ry
     ewald contribution        =     -97.56123101 Ry
     smearing contrib. (-TS)   =      -0.00122646 Ry

     convergence has been achieved in  15 iterations

     Forces acting on atoms (cartesian axes, Ry/au):

     atom    1 type  1   force =     0.00000000    0.00000000   -0.00000000
     atom    2 type  2   force =     0.00000000   -0.00000000    0.00000000

     Total force =     0.000000     Total SCF correction =     0.000000


     Computing stress (Cartesian axis) and pressure

          total   stress  (Ry/bohr**3)                   (kbar)     P=  -77.84
  -0.00052916   0.00000000   0.00000000        -77.84      0.00      0.00
   0.00000000  -0.00052916  -0.00000000          0.00    -77.84     -0.00
   0.00000000  -0.00000000  -0.00052916          0.00     -0.00    -77.84


     number of scf cycles    =   2
     number of bfgs steps    =   1

     enthalpy old            =    -133.6338804380 Ry
     enthalpy new            =    -133.6678495622 Ry

     CASE: enthalpy_new < enthalpy_old

     new trust radius        =       0.0339661169 bohr
     new conv_thr            =            1.0E-10 Ry

     new unit-cell volume =    110.15581 a.u.^3 (    16.32341 Ang^3 )
     density =      7.59831 g/cm^3

CELL_PARAMETERS (alat=  8.19194389)
  -0.464449857  -0.000000000   0.464449857
   0.000000000   0.464449857   0.464449857
  -0.464449857   0.464449857  -0.000000000

ATOMIC_POSITIONS (crystal)
Ni      -0.000000000   0.000000000   0.000000000
O        0.500000000   0.500000000   0.500000000



     Writing output data file NiO.save
     NEW-OLD atomic charge density approx. for the potential

     Check: negative/imaginary core charge=   -0.000112    0.000000
     extrapolated charge   15.21703, renormalised to   16.00000

     total cpu time spent up to now is        3.7 secs

     Self-consistent Calculation

     iteration #  1     ecut=    60.00 Ry     beta= 0.70
     Davidson diagonalization with overlap
     ethr =  1.00E-06,  avg # of iterations =  4.0

     total cpu time spent up to now is        3.9 secs

     total energy              =    -133.15552765 Ry
     Harris-Foulkes estimate   =    -134.70662676 Ry
     estimated scf accuracy    <       0.44529204 Ry

     iteration #  2     ecut=    60.00 Ry     beta= 0.70
     Davidson diagonalization with overlap
     ethr =  2.78E-03,  avg # of iterations =  3.0

     total cpu time spent up to now is        4.0 secs

     total energy              =    -133.08375675 Ry
     Harris-Foulkes estimate   =    -134.63513135 Ry
     estimated scf accuracy    <       6.04460385 Ry

     iteration #  3     ecut=    60.00 Ry     beta= 0.70
     Davidson diagonalization with overlap
     ethr =  2.78E-03,  avg # of iterations =  2.4

     total cpu time spent up to now is        4.1 secs

     total energy              =    -133.68632442 Ry
     Harris-Foulkes estimate   =    -133.71632218 Ry
     estimated scf accuracy    <       0.19277098 Ry

     iteration #  4     ecut=    60.00 Ry     beta= 0.70
     Davidson diagonalization with overlap
     ethr =  1.20E-03,  avg # of iterations =  1.0

     total cpu time spent up to now is        4.1 secs

     total energy              =    -133.67780428 Ry
     Harris-Foulkes estimate   =    -133.69135036 Ry
     estimated scf accuracy    <       0.10934818 Ry

     iteration #  5     ecut=    60.00 Ry     beta= 0.70
     Davidson diagonalization with overlap
     ethr =  6.83E-04,  avg # of iterations =  1.0

     total cpu time spent up to now is        4.2 secs

     total energy              =    -133.67051918 Ry
     Harris-Foulkes estimate   =    -133.67993685 Ry
     estimated scf accuracy    <       0.05282611 Ry

     iteration #  6     ecut=    60.00 Ry     beta= 0.70
     Davidson diagonalization with overlap
     ethr =  3.30E-04,  avg # of iterations =  1.0

     total cpu time spent up to now is        4.2 secs

     total energy              =    -133.66813567 Ry
     Harris-Foulkes estimate   =    -133.67220543 Ry
     estimated scf accuracy    <       0.01772021 Ry

     iteration #  7     ecut=    60.00 Ry     beta= 0.70
     Davidson diagonalization with overlap
     ethr =  1.11E-04,  avg # of iterations =  1.0

     total cpu time spent up to now is        4.3 secs

     total energy              =    -133.66867433 Ry
     Harris-Foulkes estimate   =    -133.66922640 Ry
     estimated scf accuracy    <       0.00330357 Ry

     iteration #  8     ecut=    60.00 Ry     beta= 0.70
     Davidson diagonalization with overlap
     ethr =  2.06E-05,  avg # of iterations =  1.2

     total cpu time spent up to now is        4.4 secs

     total energy              =    -133.66850361 Ry
     Harris-Foulkes estimate   =    -133.66879449 Ry
     estimated scf accuracy    <       0.00119714 Ry

     iteration #  9     ecut=    60.00 Ry     beta= 0.70
     Davidson diagonalization with overlap
     ethr =  7.48E-06,  avg # of iterations =  1.2

     total cpu time spent up to now is        4.4 secs

     total energy              =    -133.66851744 Ry
     Harris-Foulkes estimate   =    -133.66858307 Ry
     estimated scf accuracy    <       0.00021532 Ry

     iteration # 10     ecut=    60.00 Ry     beta= 0.70
     Davidson diagonalization with overlap
     ethr =  1.35E-06,  avg # of iterations =  2.0

     total cpu time spent up to now is        4.5 secs

     total energy              =    -133.66854727 Ry
     Harris-Foulkes estimate   =    -133.66854894 Ry
     estimated scf accuracy    <       0.00001355 Ry

     iteration # 11     ecut=    60.00 Ry     beta= 0.70
     Davidson diagonalization with overlap
     ethr =  8.47E-08,  avg # of iterations =  1.8

     total cpu time spent up to now is        4.6 secs

     total energy              =    -133.66854781 Ry
     Harris-Foulkes estimate   =    -133.66854827 Ry
     estimated scf accuracy    <       0.00000581 Ry

     iteration # 12     ecut=    60.00 Ry     beta= 0.70
     Davidson diagonalization with overlap
     ethr =  3.63E-08,  avg # of iterations =  1.2

     total cpu time spent up to now is        4.6 secs

     total energy              =    -133.66854614 Ry
     Harris-Foulkes estimate   =    -133.66854833 Ry
     estimated scf accuracy    <       0.00000129 Ry

     iteration # 13     ecut=    60.00 Ry     beta= 0.70
     Davidson diagonalization with overlap
     ethr =  8.04E-09,  avg # of iterations =  2.0

     total cpu time spent up to now is        4.7 secs

     total energy              =    -133.66854649 Ry
     Harris-Foulkes estimate   =    -133.66854638 Ry
     estimated scf accuracy    <       0.00000023 Ry

     iteration # 14     ecut=    60.00 Ry     beta= 0.70
     Davidson diagonalization with overlap
     ethr =  1.42E-09,  avg # of iterations =  2.0

     total cpu time spent up to now is        4.8 secs

     total energy              =    -133.66854623 Ry
     Harris-Foulkes estimate   =    -133.66854660 Ry
     estimated scf accuracy    <       0.00000069 Ry

     iteration # 15     ecut=    60.00 Ry     beta= 0.70
     Davidson diagonalization with overlap
     ethr =  1.42E-09,  avg # of iterations =  2.0

     total cpu time spent up to now is        4.9 secs

     total energy              =    -133.66854633 Ry
     Harris-Foulkes estimate   =    -133.66854634 Ry
     estimated scf accuracy    <       0.00000002 Ry

     iteration # 16     ecut=    60.00 Ry     beta= 0.70
     Davidson diagonalization with overlap
     ethr =  1.33E-10,  avg # of iterations =  1.0

     total cpu time spent up to now is        5.0 secs

     total energy              =    -133.66854633 Ry
     Harris-Foulkes estimate   =    -133.66854633 Ry
     estimated scf accuracy    <       0.00000001 Ry

     iteration # 17     ecut=    60.00 Ry     beta= 0.70
     Davidson diagonalization with overlap
     ethr =  7.69E-11,  avg # of iterations =  2.0

     total cpu time spent up to now is        5.0 secs

     End of self-consistent calculation

          k =-0.1346 0.1346 0.1346 (  1064 PWs)   bands (ev):

    -7.6869   8.5580   9.0739   9.0739  11.3533  11.3533  11.5346  12.3905
    12.3905  16.6357  29.0380  32.5834

          k =-0.4037 0.4037-0.1346 (  1076 PWs)   bands (ev):

    -6.7657   5.7309   7.5664   7.7758  11.7250  11.9457  12.3252  13.1109
    14.5523  19.4011  25.4941  27.8951

          k = 0.4037-0.4037 0.6728 (  1086 PWs)   bands (ev):

    -6.1279   4.4011   6.9693   7.2547  12.0027  12.2729  12.6248  14.4675
    14.5388  20.1722  24.1477  26.9290

          k = 0.1346-0.1346 0.4037 (  1069 PWs)   bands (ev):

    -7.1861   6.6699   8.3244   8.5575  11.1224  11.8208  12.1451  12.6548
    13.4696  18.5617  27.0852  29.5211

          k =-0.1346 0.6728 0.1346 (  1067 PWs)   bands (ev):

    -6.5139   5.5143   7.8430   8.2106  10.7654  12.1626  12.5768  12.7924
    13.5479  20.6109  25.2751  26.4116

          k = 0.6728-0.1346 0.9420 (  1085 PWs)   bands (ev):

    -5.9866   5.6488   6.5480   7.3144  11.5846  12.2976  12.5847  12.9643
    13.6093  22.4040  23.9311  24.9363

          k = 0.4037 0.1346 0.6728 (  1075 PWs)   bands (ev):

    -6.2538   5.1383   7.0572   7.4102  11.6603  12.2645  12.5678  13.1918
    14.4367  21.1560  24.3703  25.8094

          k =-0.1346-0.9420 0.1346 (  1080 PWs)   bands (ev):

    -6.0974   5.4561   7.5725   8.1140  10.5420  12.4026  12.5894  12.6244
    13.0585  20.8744  24.4617  25.7622

          k =-0.4037 0.4037 0.4037 (  1083 PWs)   bands (ev):

    -6.4464   4.7333   7.3617   7.3617  12.0720  12.0720  12.4243  14.5915
    14.5915  19.1756  24.6233  28.7668

          k = 0.4037-0.4037 1.2111 (  1081 PWs)   bands (ev):

    -6.0269   5.0928   6.5229   7.2885  11.9597  12.2146  12.5601  13.2884
    14.4424  22.0823  23.6078  25.0518

     the Fermi energy is    13.3788 ev

!    total energy              =    -133.66854633 Ry
     Harris-Foulkes estimate   =    -133.66854633 Ry
     estimated scf accuracy    <          3.2E-11 Ry

     The total energy is the sum of the following terms:

     one-electron contribution =     -10.30021882 Ry
     hartree contribution      =      25.58336007 Ry
     xc contribution           =     -49.82328924 Ry
     ewald contribution        =     -99.12737366 Ry
     smearing contrib. (-TS)   =      -0.00102468 Ry

     convergence has been achieved in  17 iterations

     Forces acting on atoms (cartesian axes, Ry/au):

     atom    1 type  1   force =    -0.00000000   -0.00000000   -0.00000000
     atom    2 type  2   force =     0.00000000    0.00000000    0.00000000

     Total force =     0.000000     Total SCF correction =     0.000000


     Computing stress (Cartesian axis) and pressure

          total   stress  (Ry/bohr**3)                   (kbar)     P=   44.39
   0.00030179   0.00000000   0.00000000         44.39      0.00      0.00
   0.00000000   0.00030179  -0.00000000          0.00     44.39     -0.00
  -0.00000000  -0.00000000   0.00030179         -0.00     -0.00     44.39


     number of scf cycles    =   3
     number of bfgs steps    =   2

     enthalpy old            =    -133.6678495622 Ry
     enthalpy new            =    -133.6685463277 Ry

     CASE: enthalpy_new < enthalpy_old

     new trust radius        =       0.0119909545 bohr
     new conv_thr            =            1.0E-10 Ry

     new unit-cell volume =    112.05438 a.u.^3 (    16.60475 Ang^3 )
     density =      7.46957 g/cm^3

CELL_PARAMETERS (alat=  8.19194389)
  -0.467102989  -0.000000000   0.467102989
   0.000000000   0.467102989   0.467102989
  -0.467102989   0.467102989  -0.000000000

ATOMIC_POSITIONS (crystal)
Ni      -0.000000000  -0.000000000   0.000000000
O        0.500000000   0.500000000   0.500000000



     Writing output data file NiO.save
     NEW-OLD atomic charge density approx. for the potential

     Check: negative/imaginary core charge=   -0.000127    0.000000
     extrapolated charge   16.27109, renormalised to   16.00000

     total cpu time spent up to now is        5.3 secs

     Self-consistent Calculation

     iteration #  1     ecut=    60.00 Ry     beta= 0.70
     Davidson diagonalization with overlap
     ethr =  1.00E-06,  avg # of iterations =  4.0

     total cpu time spent up to now is        5.4 secs

     total energy              =    -133.61466087 Ry
     Harris-Foulkes estimate   =    -133.33736861 Ry
     estimated scf accuracy    <       0.04490908 Ry

     iteration #  2     ecut=    60.00 Ry     beta= 0.70
     Davidson diagonalization with overlap
     ethr =  2.81E-04,  avg # of iterations =  2.9

     total cpu time spent up to now is        5.5 secs

     total energy              =    -133.61500512 Ry
     Harris-Foulkes estimate   =    -133.76792619 Ry
     estimated scf accuracy    <       0.59579491 Ry

     iteration #  3     ecut=    60.00 Ry     beta= 0.70
     Davidson diagonalization with overlap
     ethr =  2.81E-04,  avg # of iterations =  2.0

     total cpu time spent up to now is        5.6 secs

     total energy              =    -133.67094721 Ry
     Harris-Foulkes estimate   =    -133.67653335 Ry
     estimated scf accuracy    <       0.02498387 Ry

     iteration #  4     ecut=    60.00 Ry     beta= 0.70
     Davidson diagonalization with overlap
     ethr =  1.56E-04,  avg # of iterations =  1.0

     total cpu time spent up to now is        5.7 secs

     total energy              =    -133.67129912 Ry
     Harris-Foulkes estimate   =    -133.67200642 Ry
     estimated scf accuracy    <       0.01401710 Ry

     iteration #  5     ecut=    60.00 Ry     beta= 0.70
     Davidson diagonalization with overlap
     ethr =  8.76E-05,  avg # of iterations =  1.0

     total cpu time spent up to now is        5.7 secs

     total energy              =    -133.67025383 Ry
     Harris-Foulkes estimate   =    -133.67139673 Ry
     estimated scf accuracy    <       0.01111147 Ry

     iteration #  6     ecut=    60.00 Ry     beta= 0.70
     Davidson diagonalization with overlap
     ethr =  6.94E-05,  avg # of iterations =  1.0

     total cpu time spent up to now is        5.8 secs

     total energy              =    -133.66922796 Ry
     Harris-Foulkes estimate   =    -133.67037773 Ry
     estimated scf accuracy    <       0.00686064 Ry

     iteration #  7     ecut=    60.00 Ry     beta= 0.70
     Davidson diagonalization with overlap
     ethr =  4.29E-05,  avg # of iterations =  1.0

     total cpu time spent up to now is        5.8 secs

     total energy              =    -133.66861563 Ry
     Harris-Foulkes estimate   =    -133.66942848 Ry
     estimated scf accuracy    <       0.00256319 Ry

     iteration #  8     ecut=    60.00 Ry     beta= 0.70
     Davidson diagonalization with overlap
     ethr =  1.60E-05,  avg # of iterations =  1.4

     total cpu time spent up to now is        5.9 secs

     total energy              =    -133.66883807 Ry
     Harris-Foulkes estimate   =    -133.66885329 Ry
     estimated scf accuracy    <       0.00018046 Ry

     iteration #  9     ecut=    60.00 Ry     beta= 0.70
     Davidson diagonalization with overlap
     ethr =  1.13E-06,  avg # of iterations =  1.1

     total cpu time spent up to now is        6.0 secs

     total energy              =    -133.66878544 Ry
     Harris-Foulkes estimate   =    -133.66884771 Ry
     estimated scf accuracy    <       0.00014006 Ry

     iteration # 10     ecut=    60.00 Ry     beta= 0.70
     Davidson diagonalization with overlap
     ethr =  8.75E-07,  avg # of iterations =  2.0

     total cpu time spent up to now is        6.1 secs

     total energy              =    -133.66881908 Ry
     Harris-Foulkes estimate   =    -133.66882132 Ry
     estimated scf accuracy    <       0.00000463 Ry

     iteration # 11     ecut=    60.00 Ry     beta= 0.70
     Davidson diagonalization with overlap
     ethr =  2.89E-08,  avg # of iterations =  2.4

     total cpu time spent up to now is        6.2 secs

     total energy              =    -133.66882041 Ry
     Harris-Foulkes estimate   =    -133.66882052 Ry
     estimated scf accuracy    <       0.00000195 Ry

     iteration # 12     ecut=    60.00 Ry     beta= 0.70
     Davidson diagonalization with overlap
     ethr =  1.22E-08,  avg # of iterations =  2.0

     total cpu time spent up to now is        6.2 secs

     total energy              =    -133.66882042 Ry
     Harris-Foulkes estimate   =    -133.66882069 Ry
     estimated scf accuracy    <       0.00000174 Ry

     iteration # 13     ecut=    60.00 Ry     beta= 0.70
     Davidson diagonalization with overlap
     ethr =  1.09E-08,  avg # of iterations =  1.0

     total cpu time spent up to now is        6.3 secs

     total energy              =    -133.66882027 Ry
     Harris-Foulkes estimate   =    -133.66882044 Ry
     estimated scf accuracy    <       0.00000100 Ry

     iteration # 14     ecut=    60.00 Ry     beta= 0.70
     Davidson diagonalization with overlap
     ethr =  6.23E-09,  avg # of iterations =  1.0

     total cpu time spent up to now is        6.4 secs

     total energy              =    -133.66882007 Ry
     Harris-Foulkes estimate   =    -133.66882029 Ry
     estimated scf accuracy    <       0.00000050 Ry

     iteration # 15     ecut=    60.00 Ry     beta= 0.70
     Davidson diagonalization with overlap
     ethr =  3.13E-09,  avg # of iterations =  2.0

     total cpu time spent up to now is        6.4 secs

     total energy              =    -133.66882012 Ry
     Harris-Foulkes estimate   =    -133.66882013 Ry
     estimated scf accuracy    <       0.00000004 Ry

     iteration # 16     ecut=    60.00 Ry     beta= 0.70
     Davidson diagonalization with overlap
     ethr =  2.44E-10,  avg # of iterations =  2.0

     total cpu time spent up to now is        6.5 secs

     total energy              =    -133.66882013 Ry
     Harris-Foulkes estimate   =    -133.66882013 Ry
     estimated scf accuracy    <       0.00000002 Ry

     iteration # 17     ecut=    60.00 Ry     beta= 0.70
     Davidson diagonalization with overlap
     ethr =  1.15E-10,  avg # of iterations =  2.2

     total cpu time spent up to now is        6.6 secs

     total energy              =    -133.66882014 Ry
     Harris-Foulkes estimate   =    -133.66882014 Ry
     estimated scf accuracy    <       0.00000005 Ry

     iteration # 18     ecut=    60.00 Ry     beta= 0.70
     Davidson diagonalization with overlap
     ethr =  1.15E-10,  avg # of iterations =  1.0

     total cpu time spent up to now is        6.7 secs

     total energy              =    -133.66882012 Ry
     Harris-Foulkes estimate   =    -133.66882014 Ry
     estimated scf accuracy    <       0.00000004 Ry

     iteration # 19     ecut=    60.00 Ry     beta= 0.70
     Davidson diagonalization with overlap
     ethr =  1.15E-10,  avg # of iterations =  2.0

     total cpu time spent up to now is        6.8 secs

     total energy              =    -133.66882012 Ry
     Harris-Foulkes estimate   =    -133.66882012 Ry
     estimated scf accuracy    <          8.2E-10 Ry

     iteration # 20     ecut=    60.00 Ry     beta= 0.70
     Davidson diagonalization with overlap
     ethr =  5.14E-12,  avg # of iterations =  1.1

     total cpu time spent up to now is        6.8 secs

     total energy              =    -133.66882012 Ry
     Harris-Foulkes estimate   =    -133.66882012 Ry
     estimated scf accuracy    <          5.7E-10 Ry

     iteration # 21     ecut=    60.00 Ry     beta= 0.70
     Davidson diagonalization with overlap
     ethr =  3.59E-12,  avg # of iterations =  1.0

     total cpu time spent up to now is        6.9 secs

     End of self-consistent calculation

          k =-0.1338 0.1338 0.1338 (  1064 PWs)   bands (ev):

    -7.8605   8.3007   8.8181   8.8181  11.0617  11.0617  11.2350  12.0670
    12.0670  16.1743  28.6066  32.0848

          k =-0.4014 0.4014-0.1338 (  1076 PWs)   bands (ev):

    -6.9674   5.5234   7.3431   7.5490  11.4223  11.6332  12.0032  12.7640
    14.1755  18.9453  25.0453  27.4124

          k = 0.4014-0.4014 0.6690 (  1086 PWs)   bands (ev):

    -6.3521   4.2241   6.7578   7.0374  11.6904  11.9524  12.2939  14.0876
    14.1621  19.7678  23.6315  26.4730

          k = 0.1338-0.1338 0.4014 (  1069 PWs)   bands (ev):

    -7.3743   6.4470   8.0845   8.3128  10.8381  11.5135  11.8272  12.3243
    13.1093  18.0960  26.6492  29.0163

          k =-0.1338 0.6690 0.1338 (  1067 PWs)   bands (ev):

    -6.7219   5.3166   7.6117   7.9706  10.4919  11.8444  12.2471  12.4577
    13.1762  20.1326  24.8092  25.9738

          k = 0.6690-0.1338 0.9366 (  1085 PWs)   bands (ev):

    -6.2113   5.4535   6.3404   7.0919  11.2851  11.9760  12.2553  12.6118
    13.2528  21.9156  23.4795  24.4897

          k = 0.4014 0.1338 0.6690 (  1075 PWs)   bands (ev):

    -6.4716   4.9474   6.8433   7.1883  11.3588  11.9427  12.2387  12.8407
    14.0589  20.7014  23.8942  25.3598

          k =-0.1338-0.9366 0.1338 (  1080 PWs)   bands (ev):

    -6.3167   5.2627   7.3444   7.8735  10.2748  12.0777  12.2598  12.2939
    12.6959  20.4006  23.9985  25.3275

          k =-0.4014 0.4014 0.4014 (  1083 PWs)   bands (ev):

    -6.6597   4.5460   7.1430   7.1430  11.7579  11.7579  12.0991  14.2136
    14.2136  18.7577  24.1327  28.2949

          k = 0.4014-0.4014 1.2042 (  1081 PWs)   bands (ev):

    -6.2523   4.9059   6.3172   7.0691  11.6473  11.8967  12.2310  12.9313
    14.0678  21.6591  23.0935  24.6068

     the Fermi energy is    13.0201 ev

!    total energy              =    -133.66882012 Ry
     Harris-Foulkes estimate   =    -133.66882012 Ry
     estimated scf accuracy    <          7.8E-11 Ry

     The total energy is the sum of the following terms:

     one-electron contribution =     -11.13314960 Ry
     hartree contribution      =      25.82440031 Ry
     xc contribution           =     -49.79464665 Ry
     ewald contribution        =     -98.56433288 Ry
     smearing contrib. (-TS)   =      -0.00109130 Ry

     convergence has been achieved in  21 iterations

     Forces acting on atoms (cartesian axes, Ry/au):

     atom    1 type  1   force =     0.00000000   -0.00000000    0.00000000
     atom    2 type  2   force =    -0.00000000    0.00000000   -0.00000000

     Total force =     0.000000     Total SCF correction =     0.000000


     Computing stress (Cartesian axis) and pressure

          total   stress  (Ry/bohr**3)                   (kbar)     P=   -2.42
  -0.00001648  -0.00000000  -0.00000000         -2.42     -0.00     -0.00
  -0.00000000  -0.00001648   0.00000000         -0.00     -2.42      0.00
  -0.00000000  -0.00000000  -0.00001648         -0.00     -0.00     -2.42


     number of scf cycles    =   4
     number of bfgs steps    =   3

     enthalpy old            =    -133.6685463277 Ry
     enthalpy new            =    -133.6688201232 Ry

     CASE: enthalpy_new < enthalpy_old

     new trust radius        =       0.0006295600 bohr
     new conv_thr            =            1.0E-10 Ry

     new unit-cell volume =    111.95445 a.u.^3 (    16.58994 Ang^3 )
     density =      7.47624 g/cm^3

CELL_PARAMETERS (alat=  8.19194389)
  -0.466964088  -0.000000000   0.466964088
   0.000000000   0.466964088   0.466964088
  -0.466964088   0.466964088  -0.000000000

ATOMIC_POSITIONS (crystal)
Ni      -0.000000000   0.000000000   0.000000000
O        0.500000000   0.500000000   0.500000000



     Writing output data file NiO.save
     NEW-OLD atomic charge density approx. for the potential

     Check: negative/imaginary core charge=   -0.000126    0.000000
     extrapolated charge   15.98572, renormalised to   16.00000

     total cpu time spent up to now is        7.1 secs

     Self-consistent Calculation

     iteration #  1     ecut=    60.00 Ry     beta= 0.70
     Davidson diagonalization with overlap
     ethr =  1.00E-06,  avg # of iterations =  2.0

     total cpu time spent up to now is        7.2 secs

     total energy              =    -133.66866952 Ry
     Harris-Foulkes estimate   =    -133.68676989 Ry
     estimated scf accuracy    <       0.00012676 Ry

     iteration #  2     ecut=    60.00 Ry     beta= 0.70
     Davidson diagonalization with overlap
     ethr =  7.92E-07,  avg # of iterations =  3.0

     total cpu time spent up to now is        7.3 secs

     total energy              =    -133.66870081 Ry
     Harris-Foulkes estimate   =    -133.66908729 Ry
     estimated scf accuracy    <       0.00140132 Ry

     iteration #  3     ecut=    60.00 Ry     beta= 0.70
     Davidson diagonalization with overlap
     ethr =  7.92E-07,  avg # of iterations =  2.0

     total cpu time spent up to now is        7.4 secs

     total energy              =    -133.66882762 Ry
     Harris-Foulkes estimate   =    -133.66884106 Ry
     estimated scf accuracy    <       0.00007008 Ry

     iteration #  4     ecut=    60.00 Ry     beta= 0.70
     Davidson diagonalization with overlap
     ethr =  4.38E-07,  avg # of iterations =  1.0

     total cpu time spent up to now is        7.4 secs

     total energy              =    -133.66882414 Ry
     Harris-Foulkes estimate   =    -133.66882999 Ry
     estimated scf accuracy    <       0.00004051 Ry

     iteration #  5     ecut=    60.00 Ry     beta= 0.70
     Davidson diagonalization with overlap
     ethr =  2.53E-07,  avg # of iterations =  1.0

     total cpu time spent up to now is        7.5 secs

     total energy              =    -133.66881962 Ry
     Harris-Foulkes estimate   =    -133.66882508 Ry
     estimated scf accuracy    <       0.00001816 Ry

     iteration #  6     ecut=    60.00 Ry     beta= 0.70
     Davidson diagonalization with overlap
     ethr =  1.14E-07,  avg # of iterations =  1.2

     total cpu time spent up to now is        7.6 secs

     total energy              =    -133.66882060 Ry
     Harris-Foulkes estimate   =    -133.66882123 Ry
     estimated scf accuracy    <       0.00000153 Ry

     iteration #  7     ecut=    60.00 Ry     beta= 0.70
     Davidson diagonalization with overlap
     ethr =  9.57E-09,  avg # of iterations =  2.0

     total cpu time spent up to now is        7.7 secs

     total energy              =    -133.66882104 Ry
     Harris-Foulkes estimate   =    -133.66882100 Ry
     estimated scf accuracy    <       0.00000003 Ry

     iteration #  8     ecut=    60.00 Ry     beta= 0.70
     Davidson diagonalization with overlap
     ethr =  1.68E-10,  avg # of iterations =  2.6

     total cpu time spent up to now is        7.7 secs

     total energy              =    -133.66882098 Ry
     Harris-Foulkes estimate   =    -133.66882107 Ry
     estimated scf accuracy    <       0.00000031 Ry

     iteration #  9     ecut=    60.00 Ry     beta= 0.70
     Davidson diagonalization with overlap
     ethr =  1.68E-10,  avg # of iterations =  2.0

     total cpu time spent up to now is        7.8 secs

     total energy              =    -133.66882098 Ry
     Harris-Foulkes estimate   =    -133.66882100 Ry
     estimated scf accuracy    <       0.00000004 Ry

     iteration # 10     ecut=    60.00 Ry     beta= 0.70
     Davidson diagonalization with overlap
     ethr =  1.68E-10,  avg # of iterations =  2.0

     total cpu time spent up to now is        7.9 secs

     total energy              =    -133.66882099 Ry
     Harris-Foulkes estimate   =    -133.66882100 Ry
     estimated scf accuracy    <          8.5E-09 Ry

     iteration # 11     ecut=    60.00 Ry     beta= 0.70
     Davidson diagonalization with overlap
     ethr =  5.32E-11,  avg # of iterations =  1.7

     total cpu time spent up to now is        8.0 secs

     total energy              =    -133.66882099 Ry
     Harris-Foulkes estimate   =    -133.66882099 Ry
     estimated scf accuracy    <          2.2E-10 Ry

     iteration # 12     ecut=    60.00 Ry     beta= 0.70
     Davidson diagonalization with overlap
     ethr =  1.35E-12,  avg # of iterations =  2.9

     total cpu time spent up to now is        8.1 secs

     End of self-consistent calculation

          k =-0.1338 0.1338 0.1338 (  1064 PWs)   bands (ev):

    -7.8514   8.3141   8.8314   8.8314  11.0768  11.0768  11.2506  12.0838
    12.0838  16.1982  28.6290  32.1107

          k =-0.4015 0.4015-0.1338 (  1076 PWs)   bands (ev):

    -6.9570   5.5341   7.3547   7.5607  11.4380  11.6494  12.0199  12.7820
    14.1950  18.9690  25.0686  27.4374

          k = 0.4015-0.4015 0.6692 (  1086 PWs)   bands (ev):

    -6.3404   4.2333   6.7688   7.0486  11.7066  11.9690  12.3111  14.1073
    14.1817  19.7887  23.6583  26.4966

          k = 0.1338-0.1338 0.4015 (  1069 PWs)   bands (ev):

    -7.3645   6.4585   8.0970   8.3255  10.8529  11.5294  11.8437  12.3415
    13.1280  18.1201  26.6719  29.0425

          k =-0.1338 0.6692 0.1338 (  1067 PWs)   bands (ev):

    -6.7111   5.3269   7.6237   7.9830  10.5061  11.8610  12.2642  12.4751
    13.1955  20.1574  24.8333  25.9965

          k = 0.6692-0.1338 0.9369 (  1085 PWs)   bands (ev):

    -6.1996   5.4636   6.3512   7.1035  11.3007  11.9927  12.2724  12.6301
    13.2713  21.9409  23.5029  24.5129

          k = 0.4015 0.1338 0.6692 (  1075 PWs)   bands (ev):

    -6.4603   4.9573   6.8544   7.1998  11.3745  11.9594  12.2558  12.8589
    14.0784  20.7250  23.9189  25.3831

          k =-0.1338-0.9369 0.1338 (  1080 PWs)   bands (ev):

    -6.3053   5.2727   7.3563   7.8859  10.2886  12.0945  12.2769  12.3111
    12.7147  20.4251  24.0225  25.3500

          k =-0.4015 0.4015 0.4015 (  1083 PWs)   bands (ev):

    -6.6487   4.5557   7.1544   7.1544  11.7742  11.7742  12.1160  14.2332
    14.2332  18.7794  24.1581  28.3194

          k = 0.4015-0.4015 1.2046 (  1081 PWs)   bands (ev):

    -6.2406   4.9156   6.3279   7.0805  11.6635  11.9132  12.2480  12.9498
    14.0873  21.6810  23.1202  24.6299

     the Fermi energy is    13.0387 ev

!    total energy              =    -133.66882099 Ry
     Harris-Foulkes estimate   =    -133.66882099 Ry
     estimated scf accuracy    <          8.3E-12 Ry

     The total energy is the sum of the following terms:

     one-electron contribution =     -11.08973217 Ry
     hartree contribution      =      25.81177145 Ry
     xc contribution           =     -49.79612123 Ry
     ewald contribution        =     -98.59365137 Ry
     smearing contrib. (-TS)   =      -0.00108766 Ry

     convergence has been achieved in  12 iterations

     Forces acting on atoms (cartesian axes, Ry/au):

     atom    1 type  1   force =     0.00000000   -0.00000000    0.00000000
     atom    2 type  2   force =     0.00000000    0.00000000   -0.00000000

     Total force =     0.000000     Total SCF correction =     0.000000


     Computing stress (Cartesian axis) and pressure

          total   stress  (Ry/bohr**3)                   (kbar)     P=   -0.11
  -0.00000076  -0.00000000  -0.00000000         -0.11     -0.00     -0.00
  -0.00000000  -0.00000076   0.00000000         -0.00     -0.11      0.00
  -0.00000000   0.00000000  -0.00000076         -0.00      0.00     -0.11


     bfgs converged in   5 scf cycles and   4 bfgs steps
     (criteria: energy <  1.0E-04 Ry, force <  1.0E-03Ry/Bohr, cell <  5.0E-01kbar)

     End of BFGS Geometry Optimization

     Final enthalpy =    -133.6688209928 Ry
Begin final coordinates
     new unit-cell volume =    111.95445 a.u.^3 (    16.58994 Ang^3 )
     density =      7.47624 g/cm^3

CELL_PARAMETERS (alat=  8.19194389)
  -0.466964088  -0.000000000   0.466964088
   0.000000000   0.466964088   0.466964088
  -0.466964088   0.466964088  -0.000000000

ATOMIC_POSITIONS (crystal)
Ni      -0.000000000   0.000000000   0.000000000
O        0.500000000   0.500000000   0.500000000
End final coordinates



     A final scf calculation at the relaxed structure.
     The G-vectors are recalculated for the final unit cell
     Results may differ from those at the preceding step.
 
     Parallelization info
     --------------------
     sticks:   dense  smooth     PW     G-vecs:    dense   smooth      PW
     Min          24      24      7                  348      348      61
     Max          26      26      8                  350      350      63
     Sum         499     499    151                 6975     6975    1243
 


     bravais-lattice index     =            2
     lattice parameter (alat)  =       8.1919  a.u.
     unit-cell volume          =     111.9544 (a.u.)^3
     number of atoms/cell      =            2
     number of atomic types    =            2
     number of electrons       =        16.00
     number of Kohn-Sham states=           12
     kinetic-energy cutoff     =      60.0000  Ry
     charge density cutoff     =     240.0000  Ry
     convergence threshold     =      1.0E-10
     mixing beta               =       0.7000
     number of iterations used =            8  plain     mixing
     Exchange-correlation      = LDA ( 1  1  0  0 0 0)

     celldm(1)=   8.191944  celldm(2)=   0.000000  celldm(3)=   0.000000
     celldm(4)=   0.000000  celldm(5)=   0.000000  celldm(6)=   0.000000

     crystal axes: (cart. coord. in units of alat)
               a(1) = (  -0.466964  -0.000000   0.466964 )  
               a(2) = (   0.000000   0.466964   0.466964 )  
               a(3) = (  -0.466964   0.466964  -0.000000 )  

     reciprocal axes: (cart. coord. in units 2 pi/alat)
               b(1) = ( -1.070746 -1.070746  1.070746 )  
               b(2) = (  1.070746  1.070746  1.070746 )  
               b(3) = ( -1.070746  1.070746 -1.070746 )  


     PseudoPot. # 1 for Ni read from file:
     ./Ni.pz-n-rrkjus_psl.0.1.UPF
     MD5 check sum: 4def80e42349afdd14834ce81d852c61
     Pseudo is Ultrasoft + core correction, Zval = 10.0
     Generated using "atomic" code by A. Dal Corso v.5.0.2 svn rev. 9415
     Using radial grid of 1195 points,  6 beta functions with: 
                l(1) =   0
                l(2) =   0
                l(3) =   1
                l(4) =   1
                l(5) =   2
                l(6) =   2
     Q(r) pseudized with 0 coefficients 


     PseudoPot. # 2 for O  read from file:
     ./O.pz-n-rrkjus_psl.0.1.UPF
     MD5 check sum: 6e384d5705d3ad042f52b90450e69d34
     Pseudo is Ultrasoft + core correction, Zval =  6.0
     Generated using "atomic" code by A. Dal Corso v.5.0.2 svn rev. 9415
     Using radial grid of 1095 points,  4 beta functions with: 
                l(1) =   0
                l(2) =   0
                l(3) =   1
                l(4) =   1
     Q(r) pseudized with 0 coefficients 


     atomic species   valence    mass     pseudopotential
        Ni            10.00    58.69340     Ni( 1.00)
        O              6.00    15.99940     O ( 1.00)

     48 Sym. Ops., with inversion, found



   Cartesian axes

     site n.     atom                  positions (alat units)
         1           Ni  tau(   1) = (   0.0000000   0.0000000  -0.0000000  )
         2           O   tau(   2) = (  -0.4669641   0.4669641   0.4669641  )

     number of k points=    10  gaussian smearing, width (Ry)=  0.0100
                       cart. coord. in units 2pi/alat
        k(    1) = (  -0.1338433   0.1338433   0.1338433), wk =   0.0625000
        k(    2) = (  -0.4015298   0.4015298  -0.1338433), wk =   0.1875000
        k(    3) = (   0.4015298  -0.4015298   0.6692163), wk =   0.1875000
        k(    4) = (   0.1338433  -0.1338433   0.4015298), wk =   0.1875000
        k(    5) = (  -0.1338433   0.6692163   0.1338433), wk =   0.1875000
        k(    6) = (   0.6692163  -0.1338433   0.9369029), wk =   0.3750000
        k(    7) = (   0.4015298   0.1338433   0.6692163), wk =   0.3750000
        k(    8) = (  -0.1338433  -0.9369029   0.1338433), wk =   0.1875000
        k(    9) = (  -0.4015298   0.4015298   0.4015298), wk =   0.0625000
        k(   10) = (   0.4015298  -0.4015298   1.2045894), wk =   0.1875000

     Dense  grid:     6975 G-vectors     FFT dimensions: (  27,  27,  27)

     Estimated max dynamical RAM per process >       7.88 MB

     Estimated total dynamical RAM >     157.52 MB

     Check: negative/imaginary core charge=   -0.000412    0.000000

     Initial potential from superposition of free atoms

     starting charge   15.99980, renormalised to   16.00000
     Starting wfc are   13 randomized atomic wfcs

     Writing output data file NiO.save

     total cpu time spent up to now is        8.4 secs

     Self-consistent Calculation

     iteration #  1     ecut=    60.00 Ry     beta= 0.70
     Davidson diagonalization with overlap
     ethr =  1.00E-06,  avg # of iterations =  8.9

     total cpu time spent up to now is        8.7 secs

     total energy              =    -133.63253543 Ry
     Harris-Foulkes estimate   =    -133.70247596 Ry
     estimated scf accuracy    <       0.10753233 Ry

     iteration #  2     ecut=    60.00 Ry     beta= 0.70
     Davidson diagonalization with overlap
     ethr =  6.72E-04,  avg # of iterations =  2.0

     total cpu time spent up to now is        8.7 secs

     total energy              =    -133.64576074 Ry
     Harris-Foulkes estimate   =    -133.69035616 Ry
     estimated scf accuracy    <       0.08411127 Ry

     iteration #  3     ecut=    60.00 Ry     beta= 0.70
     Davidson diagonalization with overlap
     ethr =  5.26E-04,  avg # of iterations =  2.0

     total cpu time spent up to now is        8.8 secs

     total energy              =    -133.66118694 Ry
     Harris-Foulkes estimate   =    -133.67666109 Ry
     estimated scf accuracy    <       0.04366013 Ry

     iteration #  4     ecut=    60.00 Ry     beta= 0.70
     Davidson diagonalization with overlap
     ethr =  2.73E-04,  avg # of iterations =  1.9

     total cpu time spent up to now is        8.9 secs

     total energy              =    -133.66868533 Ry
     Harris-Foulkes estimate   =    -133.66904361 Ry
     estimated scf accuracy    <       0.00102473 Ry

     iteration #  5     ecut=    60.00 Ry     beta= 0.70
     Davidson diagonalization with overlap
     ethr =  6.40E-06,  avg # of iterations =  2.0

     total cpu time spent up to now is        9.0 secs

     total energy              =    -133.66886285 Ry
     Harris-Foulkes estimate   =    -133.66886515 Ry
     estimated scf accuracy    <       0.00000668 Ry

     iteration #  6     ecut=    60.00 Ry     beta= 0.70
     Davidson diagonalization with overlap
     ethr =  4.18E-08,  avg # of iterations =  2.8

     total cpu time spent up to now is        9.1 secs

     total energy              =    -133.66886624 Ry
     Harris-Foulkes estimate   =    -133.66886661 Ry
     estimated scf accuracy    <       0.00000091 Ry

     iteration #  7     ecut=    60.00 Ry     beta= 0.70
     Davidson diagonalization with overlap
     ethr =  5.66E-09,  avg # of iterations =  1.4

     total cpu time spent up to now is        9.1 secs

     total energy              =    -133.66886636 Ry
     Harris-Foulkes estimate   =    -133.66886638 Ry
     estimated scf accuracy    <       0.00000005 Ry

     iteration #  8     ecut=    60.00 Ry     beta= 0.70
     Davidson diagonalization with overlap
     ethr =  2.98E-10,  avg # of iterations =  2.4

     total cpu time spent up to now is        9.2 secs

     total energy              =    -133.66886637 Ry
     Harris-Foulkes estimate   =    -133.66886637 Ry
     estimated scf accuracy    <          1.7E-09 Ry

     iteration #  9     ecut=    60.00 Ry     beta= 0.70
     Davidson diagonalization with overlap
     ethr =  1.04E-11,  avg # of iterations =  2.1

     total cpu time spent up to now is        9.3 secs

     total energy              =    -133.66886637 Ry
     Harris-Foulkes estimate   =    -133.66886637 Ry
     estimated scf accuracy    <          4.3E-10 Ry

     iteration # 10     ecut=    60.00 Ry     beta= 0.70
     Davidson diagonalization with overlap
     ethr =  2.67E-12,  avg # of iterations =  2.0

     total cpu time spent up to now is        9.4 secs

     End of self-consistent calculation

          k =-0.1338 0.1338 0.1338 (   893 PWs)   bands (ev):

    -7.8515   8.3155   8.8329   8.8329  11.0785  11.0785  11.2522  12.0856
    12.0856  16.1993  28.6308  32.1122

          k =-0.4015 0.4015-0.1338 (   877 PWs)   bands (ev):

    -6.9571   5.5357   7.3561   7.5623  11.4397  11.6511  12.0216  12.7838
    14.1970  18.9706  25.0705  27.4387

          k = 0.4015-0.4015 0.6692 (   883 PWs)   bands (ev):

    -6.3406   4.2349   6.7703   7.0501  11.7083  11.9707  12.3129  14.1092
    14.1836  19.7902  23.6603  26.4980

          k = 0.1338-0.1338 0.4015 (   885 PWs)   bands (ev):

    -7.3647   6.4601   8.0984   8.3270  10.8546  11.5311  11.8454  12.3432
    13.1298  18.1217  26.6737  29.0437

          k =-0.1338 0.6692 0.1338 (   876 PWs)   bands (ev):

    -6.7113   5.3284   7.6253   7.9846  10.5078  11.8626  12.2659  12.4768
    13.1972  20.1591  24.8347  25.9984

          k = 0.6692-0.1338 0.9369 (   884 PWs)   bands (ev):

    -6.1999   5.4653   6.3528   7.1050  11.3024  11.9944  12.2741  12.6318
    13.2730  21.9423  23.5048  24.5149

          k = 0.4015 0.1338 0.6692 (   876 PWs)   bands (ev):

    -6.4605   4.9588   6.8560   7.2013  11.3762  11.9611  12.2576  12.8607
    14.0804  20.7268  23.9205  25.3848

          k =-0.1338-0.9369 0.1338 (   877 PWs)   bands (ev):

    -6.3055   5.2744   7.3579   7.8876  10.2903  12.0962  12.2787  12.3128
    12.7163  20.4262  24.0247  25.3520

          k =-0.4015 0.4015 0.4015 (   878 PWs)   bands (ev):

    -6.6488   4.5572   7.1558   7.1558  11.7759  11.7759  12.1178  14.2352
    14.2352  18.7809  24.1601  28.3204

          k = 0.4015-0.4015 1.2046 (   871 PWs)   bands (ev):

    -6.2408   4.9172   6.3295   7.0821  11.6652  11.9149  12.2498  12.9515
    14.0892  21.6827  23.1219  24.6318

     the Fermi energy is    13.0404 ev

!    total energy              =    -133.66886637 Ry
     Harris-Foulkes estimate   =    -133.66886637 Ry
     estimated scf accuracy    <          4.7E-13 Ry

     The total energy is the sum of the following terms:

     one-electron contribution =     -11.08881461 Ry
     hartree contribution      =      25.81200460 Ry
     xc contribution           =     -49.79731749 Ry
     ewald contribution        =     -98.59365139 Ry
     smearing contrib. (-TS)   =      -0.00108747 Ry

     convergence has been achieved in  10 iterations

     Forces acting on atoms (cartesian axes, Ry/au):

     atom    1 type  1   force =     0.00000000    0.00000000    0.00000000
     atom    2 type  2   force =    -0.00000000   -0.00000000    0.00000000

     Total force =     0.000000     Total SCF correction =     0.000000


     Computing stress (Cartesian axis) and pressure

          total   stress  (Ry/bohr**3)                   (kbar)     P=    6.94
   0.00004718  -0.00000000  -0.00000000          6.94     -0.00     -0.00
  -0.00000000   0.00004718   0.00000000         -0.00      6.94      0.00
  -0.00000000   0.00000000   0.00004718         -0.00      0.00      6.94


     Writing output data file NiO.save
 
     init_run     :      0.32s CPU      0.34s WALL (       2 calls)
     electrons    :      6.25s CPU      7.10s WALL (       6 calls)
     update_pot   :      0.23s CPU      0.24s WALL (       4 calls)
     forces       :      0.19s CPU      0.20s WALL (       6 calls)
     stress       :      0.43s CPU      0.43s WALL (       6 calls)

     Called by init_run:
     wfcinit      :      0.04s CPU      0.05s WALL (       2 calls)
     potinit      :      0.02s CPU      0.02s WALL (       2 calls)

     Called by electrons:
     c_bands      :      5.48s CPU      6.23s WALL (      85 calls)
     sum_band     :      0.59s CPU      0.62s WALL (      85 calls)
     v_of_rho     :      0.02s CPU      0.02s WALL (      90 calls)
     newd         :      0.12s CPU      0.12s WALL (      90 calls)
     mix_rho      :      0.03s CPU      0.03s WALL (      85 calls)

     Called by c_bands:
     init_us_2    :      0.05s CPU      0.05s WALL (    1840 calls)
     cegterg      :      5.36s CPU      6.10s WALL (     850 calls)

     Called by sum_band:
     sum_band:bec :      0.01s CPU      0.01s WALL (     850 calls)
     addusdens    :      0.14s CPU      0.14s WALL (      85 calls)

     Called by *egterg:
     h_psi        :      1.89s CPU      2.01s WALL (    2557 calls)
     s_psi        :      0.02s CPU      0.03s WALL (    2557 calls)
     g_psi        :      0.01s CPU      0.01s WALL (    1687 calls)
     cdiaghg      :      2.34s CPU      2.72s WALL (    2487 calls)

     Called by h_psi:
     h_psi:pot    :      1.89s CPU      2.00s WALL (    2557 calls)
     h_psi:calbec :      0.07s CPU      0.08s WALL (    2557 calls)
     vloc_psi     :      1.77s CPU      1.88s WALL (    2557 calls)
     add_vuspsi   :      0.03s CPU      0.03s WALL (    2557 calls)

     General routines
     calbec       :      0.10s CPU      0.11s WALL (    3707 calls)
     fft          :      0.06s CPU      0.06s WALL (     589 calls)
     fftw         :      1.98s CPU      2.10s WALL (   61088 calls)
 
     Parallel routines
     fft_scatt_xy :      0.13s CPU      0.14s WALL (   61677 calls)
     fft_scatt_yz :      1.22s CPU      1.29s WALL (   61677 calls)
 
     PWSCF        :     8.32s CPU        10.03s WALL

 
   This run was terminated on:  10:41:14   1Jul2019            

=------------------------------------------------------------------------------=
   JOB DONE.
=------------------------------------------------------------------------------=
